                         Program Version 4.2.0 -  RELEASE  -
|  1> #
|  2> # 03_Li CCSD(T)/Def2-TZVPPD
|  3> #
|  4> ! HF Def2-TZVPPD tightscf
|  5>
|  6> *xyz 0 2
|  7>  Li 0.0 0.0 0.0
|  8> *
|  9>
| 10> %method
| 11> NewNCore Li 2 end
| 12> end
| 13>
| 14>
| 15>                          ****END OF INPUT****

CARTESIAN COORDINATES (ANGSTROEM)
---------------------------------
  Li     0.000000    0.000000    0.000000

 Total Charge           Charge          ....    0
 Multiplicity           Mult            ....    2
 Number of Electrons    NEL             ....    3
 Basis Dimension        Dim             ....   22

ORBITAL ENERGIES
----------------
                 SPIN UP ORBITALS
  NO   OCC          E(Eh)            E(eV)
   0   1.0000      -2.486679       -67.6660
   1   1.0000      -0.196334        -5.3425
   2   0.0000       0.022235         0.6051
   3   0.0000       0.022235         0.6051
   4   0.0000       0.022235         0.6051
   5   0.0000       0.111402         3.0314
   6   0.0000       0.111402         3.0314

                 SPIN DOWN ORBITALS
  NO   OCC          E(Eh)            E(eV)
   0   1.0000      -2.468792       -67.1792
   1   0.0000       0.020775         0.5653
   2   0.0000       0.042069         1.1447
   3   0.0000       0.042069         1.1447
   4   0.0000       0.042069         1.1447
   5   0.0000       0.145559         3.9609

MULLIKEN ATOMIC CHARGES AND SPIN POPULATIONS
--------------------------------------------
   0 Li:   -0.000000    1.000000
Sum of atomic charges         :   -0.0000000

LOEWDIN ATOMIC CHARGES AND SPIN POPULATIONS
-------------------------------------------
   0 Li:   -0.000000    1.000000

FINAL SINGLE POINT ENERGY        -7.432675304186

DIPOLE MOMENT
-------------
                                X             Y             Z
Electronic contribution:     -0.00000       0.00000       0.00000
Nuclear contribution   :      0.00000       0.00000       0.00000
                        -----------------------------------------
Total Dipole Moment    :     -0.00000       0.00000       0.00000
                        -----------------------------------------
Magnitude (a.u.)       :      0.00000
Magnitude (Debye)      :      0.00000

Rotational constants in cm-1:     0.000000     0.000000     0.000000
Rotational constants in MHz :     0.000000     0.000000     0.000000

                             ****ORCA TERMINATED NORMALLY****
TOTAL RUN TIME: 0 days 0 hours 0 minutes 1 seconds 427 msec
