                         Program Version 4.2.0 -  RELEASE  -
|  1> #
|  2> # 04_Be CCSD(T)/Def2-TZVPPD
|  3> #
|  4> ! CCSD(T) Def2-TZVPPD tightscf
|  5>
|  6> *xyz 0 1
|  7>  Be 0.0 0.0 0.0
|  8> *
|  9>
| 10> %maxcore 5000
| 11>
| 12> %pal
| 13> nprocs 1
| 14> end
| 15>
| 16> %method
| 17> NewNCore Be 2 end
| 18> end
| 19>
| 20>
| 21>                          ****END OF INPUT****

CARTESIAN COORDINATES (ANGSTROEM)
---------------------------------
  Be     0.000000    0.000000    0.000000

 Total Charge           Charge          ....    0
 Multiplicity           Mult            ....    1
 Number of Electrons    NEL             ....    4
 Basis Dimension        Dim             ....   22

ORBITAL ENERGIES
----------------

  NO   OCC          E(Eh)            E(eV)
   0   2.0000      -4.732556      -128.7794
   1   2.0000      -0.309207        -8.4139
   2   0.0000       0.034841         0.9481
   3   0.0000       0.034841         0.9481
   4   0.0000       0.034841         0.9481
   5   0.0000       0.087734         2.3874
   6   0.0000       0.121559         3.3078

E(0)                                       ...    -14.572579867
E(0)                                       ...    -14.572579867
E(CORR)                                    ...     -0.045204456
E(TOT)                                     ...    -14.617784323
E(CCSD(T))                                 ...    -14.617784323

MULLIKEN ATOMIC CHARGES
-----------------------
   0 Be:   -0.000000
Sum of atomic charges:   -0.0000000

LOEWDIN ATOMIC CHARGES
----------------------
   0 Be:    0.000000

FINAL SINGLE POINT ENERGY       -14.617784323115

DIPOLE MOMENT
-------------
                                X             Y             Z
Electronic contribution:     -0.00000       0.00000       0.00000
Nuclear contribution   :      0.00000       0.00000       0.00000
                        -----------------------------------------
Total Dipole Moment    :     -0.00000       0.00000       0.00000
                        -----------------------------------------
Magnitude (a.u.)       :      0.00000
Magnitude (Debye)      :      0.00000

Rotational constants in cm-1:     0.000000     0.000000     0.000000
Rotational constants in MHz :     0.000000     0.000000     0.000000

                             ****ORCA TERMINATED NORMALLY****
TOTAL RUN TIME: 0 days 0 hours 0 minutes 1 seconds 795 msec
