                         Program Version 4.2.0 -  RELEASE  -
|  1> #
|  2> # 05_B CCSD(T)/Def2-TZVPPD
|  3> #
|  4> ! CCSD(T) Def2-TZVPPD tightscf
|  5>
|  6> *xyz 0 2
|  7>  B 0.0 0.0 0.0
|  8> *
|  9>
| 10> %maxcore 5000
| 11>
| 12> %pal
| 13> nprocs 3
| 14> end
| 15>
| 16>
| 17>                          ****END OF INPUT****

CARTESIAN COORDINATES (ANGSTROEM)
---------------------------------
  B      0.000000    0.000000    0.000000

 Total Charge           Charge          ....    0
 Multiplicity           Mult            ....    2
 Number of Electrons    NEL             ....    5
 Basis Dimension        Dim             ....   37

ORBITAL ENERGIES
----------------
                 SPIN UP ORBITALS
  NO   OCC          E(Eh)            E(eV)
   0   1.0000      -7.701313      -209.5634
   1   1.0000      -0.545079       -14.8323
   2   1.0000      -0.318749        -8.6736
   3   0.0000       0.041878         1.1396
   4   0.0000       0.041878         1.1396
   5   0.0000       0.055652         1.5144
   6   0.0000       0.186027         5.0620
   7   0.0000       0.186027         5.0620

                 SPIN DOWN ORBITALS
  NO   OCC          E(Eh)            E(eV)
   0   1.0000      -7.685938      -209.1450
   1   1.0000      -0.446043       -12.1375
   2   0.0000       0.051389         1.3984
   3   0.0000       0.051389         1.3984
   4   0.0000       0.058925         1.6034
   5   0.0000       0.089290         2.4297
   6   0.0000       0.186197         5.0667

E(0)                                       ...    -24.532382820
E(0)                                       ...    -24.532382820
E(CORR)                                    ...     -0.064330935
E(TOT)                                     ...    -24.596713754
E(CCSD(T))                                 ...    -24.598041200

MULLIKEN ATOMIC CHARGES AND SPIN DENSITIES
------------------------------------------
   0 B :    0.000000    1.000000
Sum of atomic charges       :    0.0000000

LOEWDIN ATOMIC CHARGES AND SPIN DENSITIES
-----------------------------------------
   0 B :    0.000000    1.000000

FINAL SINGLE POINT ENERGY       -24.598041200357

DIPOLE MOMENT
-------------
                                X             Y             Z
Electronic contribution:     -0.00000      -0.00000      -0.00000
Nuclear contribution   :      0.00000       0.00000       0.00000
                        -----------------------------------------
Total Dipole Moment    :     -0.00000      -0.00000      -0.00000
                        -----------------------------------------
Magnitude (a.u.)       :      0.00000
Magnitude (Debye)      :      0.00000

Rotational constants in cm-1:     0.000000     0.000000     0.000000
Rotational constants in MHz :     0.000000     0.000000     0.000000

                             ****ORCA TERMINATED NORMALLY****
TOTAL RUN TIME: 0 days 0 hours 0 minutes 5 seconds 808 msec
