                         Program Version 4.2.0 -  RELEASE  -
|  1> #
|  2> # 06_C CCSD(T)/Def2-TZVPPD
|  3> #
|  4> ! CCSD(T) Def2-TZVPPD tightscf
|  5>
|  6> *xyz 0 3
|  7>  C 0.0 0.0 0.0
|  8> *
|  9>
| 10> %maxcore 5000
| 11>
| 12> %pal
| 13> nprocs 6
| 14> end
| 15>
| 16>
| 17>                          ****END OF INPUT****

CARTESIAN COORDINATES (ANGSTROEM)
---------------------------------
  C      0.000000    0.000000    0.000000

 Total Charge           Charge          ....    0
 Multiplicity           Mult            ....    3
 Number of Electrons    NEL             ....    6
 Basis Dimension        Dim             ....   37

ORBITAL ENERGIES
----------------
                 SPIN UP ORBITALS
  NO   OCC          E(Eh)            E(eV)
   0   1.0000     -11.345648      -308.7308
   1   1.0000      -0.828929       -22.5563
   2   1.0000      -0.438981       -11.9453
   3   1.0000      -0.438981       -11.9453
   4   0.0000       0.030204         0.8219
   5   0.0000       0.084631         2.3029
   6   0.0000       0.281580         7.6622
   7   0.0000       0.281580         7.6622
   8   0.0000       0.281627         7.6635

                 SPIN DOWN ORBITALS
  NO   OCC          E(Eh)            E(eV)
   0   1.0000     -11.299833      -307.4841
   1   1.0000      -0.583160       -15.8686
   2   0.0000       0.060999         1.6599
   3   0.0000       0.093341         2.5399
   4   0.0000       0.110164         2.9977
   5   0.0000       0.110164         2.9977
   6   0.0000       0.287908         7.8344

E(0)                                       ...    -37.692530565
E(0)                                       ...    -37.692530565
E(CORR)                                    ...     -0.086744286
E(TOT)                                     ...    -37.779274851
E(CCSD(T))                                 ...    -37.781356129

MULLIKEN ATOMIC CHARGES AND SPIN DENSITIES
------------------------------------------
   0 C :   -0.000000    2.000000
Sum of atomic charges       :   -0.0000000

LOEWDIN ATOMIC CHARGES AND SPIN DENSITIES
-----------------------------------------
   0 C :   -0.000000    2.000000

FINAL SINGLE POINT ENERGY       -37.781356129396

DIPOLE MOMENT
-------------
                                X             Y             Z
Electronic contribution:      0.00000       0.00000       0.00000
Nuclear contribution   :      0.00000       0.00000       0.00000
                        -----------------------------------------
Total Dipole Moment    :      0.00000       0.00000       0.00000
                        -----------------------------------------
Magnitude (a.u.)       :      0.00000
Magnitude (Debye)      :      0.00000

Rotational constants in cm-1:     0.000000     0.000000     0.000000
Rotational constants in MHz :     0.000000     0.000000     0.000000

                             ****ORCA TERMINATED NORMALLY****
TOTAL RUN TIME: 0 days 0 hours 0 minutes 15 seconds 72 msec
