                         Program Version 4.2.0 -  RELEASE  -
|  1> #
|  2> # 07_N CCSD(T)/Def2-TZVPPD
|  3> #
|  4> ! CCSD(T) Def2-TZVPPD tightscf
|  5>
|  6> *xyz 0 4
|  7>  N 0.0 0.0 0.0
|  8> *
|  9>
| 10> %maxcore 5000
| 11>
| 12> %pal
| 13> nprocs 10
| 14> end
| 15>
| 16>
| 17>                          ****END OF INPUT****

CARTESIAN COORDINATES (ANGSTROEM)
---------------------------------
  N      0.000000    0.000000    0.000000

 Total Charge           Charge          ....    0
 Multiplicity           Mult            ....    4
 Number of Electrons    NEL             ....    7
 Basis Dimension        Dim             ....   37

ORBITAL ENERGIES
----------------
                 SPIN UP ORBITALS
  NO   OCC          E(Eh)            E(eV)
   0   1.0000     -15.670816      -426.4246
   1   1.0000      -1.162511       -31.6335
   2   1.0000      -0.570725       -15.5302
   3   1.0000      -0.570725       -15.5302
   4   1.0000      -0.570725       -15.5302
   5   0.0000       0.118242         3.2175
   6   0.0000       0.394538        10.7359
   7   0.0000       0.394538        10.7359
   8   0.0000       0.394538        10.7359
   9   0.0000       0.394538        10.7359

                 SPIN DOWN ORBITALS
  NO   OCC          E(Eh)            E(eV)
   0   1.0000     -15.579853      -423.9494
   1   1.0000      -0.725346       -19.7377
   2   0.0000       0.129339         3.5195
   3   0.0000       0.129339         3.5195
   4   0.0000       0.129339         3.5195
   5   0.0000       0.134466         3.6590
   6   0.0000       0.416857        11.3433

E(0)                                       ...    -54.402769443
E(0)                                       ...    -54.402769443
E(CORR)                                    ...     -0.111403128
E(TOT)                                     ...    -54.514172571
E(CCSD(T))                                 ...    -54.516550162

MULLIKEN ATOMIC CHARGES AND SPIN DENSITIES
------------------------------------------
   0 N :   -0.000000    3.000000
Sum of atomic charges       :   -0.0000000

LOEWDIN ATOMIC CHARGES AND SPIN DENSITIES
-----------------------------------------
   0 N :   -0.000000    3.000000

FINAL SINGLE POINT ENERGY       -54.516550162463

DIPOLE MOMENT
-------------
                                X             Y             Z
Electronic contribution:     -0.00000      -0.00000       0.00000
Nuclear contribution   :      0.00000       0.00000       0.00000
                        -----------------------------------------
Total Dipole Moment    :     -0.00000      -0.00000       0.00000
                        -----------------------------------------
Magnitude (a.u.)       :      0.00000
Magnitude (Debye)      :      0.00000

Rotational constants in cm-1:     0.000000     0.000000     0.000000
Rotational constants in MHz :     0.000000     0.000000     0.000000

                             ****ORCA TERMINATED NORMALLY****
TOTAL RUN TIME: 0 days 0 hours 0 minutes 5 seconds 633 msec
