                         Program Version 4.2.0 -  RELEASE  -
|  1> #
|  2> # 09_F CCSD(T)/Def2-TZVPPD
|  3> #
|  4> ! CCSD(T) Def2-TZVPPD tightscf
|  5>
|  6> *xyz 0 2
|  7>  F 0.0 0.0 0.0
|  8> *
|  9>
| 10> %maxcore 5000
| 11>
| 12> %pal
| 13> nprocs 21
| 14> end
| 15>
| 16>
| 17>                          ****END OF INPUT****

CARTESIAN COORDINATES (ANGSTROEM)
---------------------------------
  F      0.000000    0.000000    0.000000

 Total Charge           Charge          ....    0
 Multiplicity           Mult            ....    2
 Number of Electrons    NEL             ....    9
 Basis Dimension        Dim             ....   40

ORBITAL ENERGIES
----------------
                 SPIN UP ORBITALS
  NO   OCC          E(Eh)            E(eV)
   0   1.0000     -26.408087      -718.6006
   1   1.0000      -1.672275       -45.5049
   2   1.0000      -0.845247       -23.0004
   3   1.0000      -0.731711       -19.9109
   4   1.0000      -0.731711       -19.9109
   5   0.0000       0.147195         4.0054
   6   0.0000       0.154628         4.2076
   7   0.0000       0.154628         4.2076
   8   0.0000       0.170202         4.6314
   9   0.0000       0.582676        15.8554

                 SPIN DOWN ORBITALS
  NO   OCC          E(Eh)            E(eV)
   0   1.0000     -26.359449      -717.2771
   1   1.0000      -1.477051       -40.1926
   2   1.0000      -0.679727       -18.4963
   3   1.0000      -0.679727       -18.4963
   4   0.0000       0.033698         0.9170
   5   0.0000       0.155985         4.2446
   6   0.0000       0.155985         4.2446
   7   0.0000       0.175620         4.7789
   8   0.0000       0.194604         5.2955

E(0)                                       ...    -99.412118293
E(0)                                       ...    -99.412118293
E(CORR)                                    ...     -0.211323235
E(TOT)                                     ...    -99.623441528
E(CCSD(T))                                 ...    -99.627214051

MULLIKEN ATOMIC CHARGES AND SPIN DENSITIES
------------------------------------------
   0 F :   -0.000000    1.000000
Sum of atomic charges       :   -0.0000000

LOEWDIN ATOMIC CHARGES AND SPIN DENSITIES
-----------------------------------------
   0 F :   -0.000000    1.000000

FINAL SINGLE POINT ENERGY       -99.627214050782

DIPOLE MOMENT
-------------
                                X             Y             Z
Electronic contribution:      0.00000       0.00000       0.00000
Nuclear contribution   :      0.00000       0.00000       0.00000
                        -----------------------------------------
Total Dipole Moment    :      0.00000       0.00000       0.00000
                        -----------------------------------------
Magnitude (a.u.)       :      0.00000
Magnitude (Debye)      :      0.00000

Rotational constants in cm-1:     0.000000     0.000000     0.000000
Rotational constants in MHz :     0.000000     0.000000     0.000000

                             ****ORCA TERMINATED NORMALLY****
TOTAL RUN TIME: 0 days 0 hours 0 minutes 7 seconds 925 msec
