                         Program Version 4.2.0 -  RELEASE  -
|  1> #
|  2> # 10_Ne CCSD(T)/Def2-TZVPPD
|  3> #
|  4> ! CCSD(T) Def2-TZVPPD tightscf
|  5>
|  6> *xyz 0 1
|  7>  Ne 0.0 0.0 0.0
|  8> *
|  9>
| 10> %maxcore 5000
| 11>
| 12> %pal
| 13> nprocs 10
| 14> end
| 15>
| 16>
| 17>                          ****END OF INPUT****

CARTESIAN COORDINATES (ANGSTROEM)
---------------------------------
  Ne     0.000000    0.000000    0.000000

 Total Charge           Charge          ....    0
 Multiplicity           Mult            ....    1
 Number of Electrons    NEL             ....   10
 Basis Dimension        Dim             ....   40

ORBITAL ENERGIES
----------------

  NO   OCC          E(Eh)            E(eV)
   0   2.0000     -32.774331      -891.8349
   1   2.0000      -1.930615       -52.5347
   2   2.0000      -0.850746       -23.1500
   3   2.0000      -0.850746       -23.1500
   4   2.0000      -0.850746       -23.1500
   5   0.0000       0.182272         4.9599
   6   0.0000       0.182272         4.9599
   7   0.0000       0.182272         4.9599
   8   0.0000       0.213357         5.8058
   9   0.0000       0.735149        20.0044

E(0)                                       ...   -128.541802525
E(0)                                       ...   -128.541802525
E(CORR)                                    ...     -0.266443023
E(TOT)                                     ...   -128.808245548
E(CCSD(T))                                 ...   -128.812679575

MULLIKEN ATOMIC CHARGES
-----------------------
   0 Ne:   -0.000000
Sum of atomic charges:   -0.0000000

LOEWDIN ATOMIC CHARGES
----------------------
   0 Ne:   -0.000000

FINAL SINGLE POINT ENERGY      -128.812679574537

DIPOLE MOMENT
-------------
                                X             Y             Z
Electronic contribution:      0.00000      -0.00000      -0.00000
Nuclear contribution   :      0.00000       0.00000       0.00000
                        -----------------------------------------
Total Dipole Moment    :      0.00000      -0.00000      -0.00000
                        -----------------------------------------
Magnitude (a.u.)       :      0.00000
Magnitude (Debye)      :      0.00000

Rotational constants in cm-1:     0.000000     0.000000     0.000000
Rotational constants in MHz :     0.000000     0.000000     0.000000

                             ****ORCA TERMINATED NORMALLY****
TOTAL RUN TIME: 0 days 0 hours 0 minutes 4 seconds 366 msec
