                         Program Version 4.2.0 -  RELEASE  -
|  1> #
|  2> # 11_Na CCSD(T)/Def2-TZVPPD
|  3> #
|  4> ! HF Def2-TZVPPD tightscf
|  5>
|  6> *xyz 0 2
|  7>  Na 0.0 0.0 0.0
|  8> *
|  9>
| 10> %maxcore 5000
| 11>
| 12> %pal
| 13> nprocs 24
| 14> end
| 15>
| 16> %method
| 17> NewNCore Na 10 end
| 18> end
| 19>
| 20>
| 21>                          ****END OF INPUT****

CARTESIAN COORDINATES (ANGSTROEM)
---------------------------------
  Na     0.000000    0.000000    0.000000

 Total Charge           Charge          ....    0
 Multiplicity           Mult            ....    2
 Number of Electrons    NEL             ....   11
 Basis Dimension        Dim             ....   35

ORBITAL ENERGIES
----------------
                 SPIN UP ORBITALS
  NO   OCC          E(Eh)            E(eV)
   0   1.0000     -40.478026     -1101.4631
   1   1.0000      -2.800680       -76.2104
   2   1.0000      -1.518843       -41.3298
   3   1.0000      -1.518843       -41.3298
   4   1.0000      -1.518843       -41.3298
   5   1.0000      -0.181801        -4.9471
   6   0.0000       0.015200         0.4136
   7   0.0000       0.015200         0.4136
   8   0.0000       0.015200         0.4136
   9   0.0000       0.061677         1.6783
  10   0.0000       0.061677         1.6783

                 SPIN DOWN ORBITALS
  NO   OCC          E(Eh)            E(eV)
   0   1.0000     -40.475433     -1101.3925
   1   1.0000      -2.793428       -76.0130
   2   1.0000      -1.516776       -41.2736
   3   1.0000      -1.516776       -41.2736
   4   1.0000      -1.516776       -41.2736
   5   0.0000       0.013468         0.3665
   6   0.0000       0.023563         0.6412
   7   0.0000       0.023563         0.6412
   8   0.0000       0.023563         0.6412
   9   0.0000       0.087420         2.3788

MULLIKEN ATOMIC CHARGES AND SPIN POPULATIONS
--------------------------------------------
   0 Na:    0.000000    1.000000
Sum of atomic charges         :    0.0000000

LOEWDIN ATOMIC CHARGES AND SPIN POPULATIONS
-------------------------------------------
   0 Na:    0.000000    1.000000

FINAL SINGLE POINT ENERGY      -161.851848920213

DIPOLE MOMENT
-------------
                                X             Y             Z
Electronic contribution:      0.00000       0.00000       0.00000
Nuclear contribution   :      0.00000       0.00000       0.00000
                        -----------------------------------------
Total Dipole Moment    :      0.00000       0.00000       0.00000
                        -----------------------------------------
Magnitude (a.u.)       :      0.00000
Magnitude (Debye)      :      0.00000

Rotational constants in cm-1:     0.000000     0.000000     0.000000
Rotational constants in MHz :     0.000000     0.000000     0.000000

                             ****ORCA TERMINATED NORMALLY****
TOTAL RUN TIME: 0 days 0 hours 0 minutes 9 seconds 466 msec
