                         Program Version 4.2.0 -  RELEASE  -
|  1> #
|  2> # 12_Mg CCSD(T)/Def2-TZVPPD
|  3> #
|  4> ! CCSD(T) Def2-TZVPPD tightscf
|  5>
|  6> *xyz 0 1
|  7>  Mg 0.0 0.0 0.0
|  8> *
|  9>
| 10> %maxcore 5000
| 11>
| 12> %pal
| 13> nprocs 1
| 14> end
| 15>
| 16> %method
| 17> NewNCore Mg 10 end
| 18> end
| 19>
| 20>
| 21>                          ****END OF INPUT****

CARTESIAN COORDINATES (ANGSTROEM)
---------------------------------
  Mg     0.000000    0.000000    0.000000

 Total Charge           Charge          ....    0
 Multiplicity           Mult            ....    1
 Number of Electrons    NEL             ....   12
 Basis Dimension        Dim             ....   35

ORBITAL ENERGIES
----------------

  NO   OCC          E(Eh)            E(eV)
   0   2.0000     -49.029109     -1334.1499
   1   2.0000      -3.767340      -102.5145
   2   2.0000      -2.281500       -62.0828
   3   2.0000      -2.281500       -62.0828
   4   2.0000      -2.281500       -62.0828
   5   2.0000      -0.252991        -6.8842
   6   0.0000       0.030465         0.8290
   7   0.0000       0.030465         0.8290
   8   0.0000       0.030465         0.8290
   9   0.0000       0.120360         3.2752
  10   0.0000       0.120360         3.2752

E(0)                                       ...   -199.606646592
E(0)                                       ...   -199.606646592
E(CORR)                                    ...     -0.032914877
E(TOT)                                     ...   -199.639561469
E(CCSD(T))                                 ...   -199.639561469

MULLIKEN ATOMIC CHARGES
-----------------------
   0 Mg:   -0.000000
Sum of atomic charges:   -0.0000000

LOEWDIN ATOMIC CHARGES
----------------------
   0 Mg:   -0.000000

FINAL SINGLE POINT ENERGY      -199.639561468707

DIPOLE MOMENT
-------------
                                X             Y             Z
Electronic contribution:     -0.00000       0.00000       0.00000
Nuclear contribution   :      0.00000       0.00000       0.00000
                        -----------------------------------------
Total Dipole Moment    :     -0.00000       0.00000       0.00000
                        -----------------------------------------
Magnitude (a.u.)       :      0.00000
Magnitude (Debye)      :      0.00000

Rotational constants in cm-1:     0.000000     0.000000     0.000000
Rotational constants in MHz :     0.000000     0.000000     0.000000

                             ****ORCA TERMINATED NORMALLY****
TOTAL RUN TIME: 0 days 0 hours 0 minutes 2 seconds 422 msec
