                         Program Version 4.2.0 -  RELEASE  -
|  1> #
|  2> # 13_Al CCSD(T)/Def2-TZVPPD
|  3> #
|  4> ! CCSD(T) Def2-TZVPPD tightscf
|  5>
|  6> *xyz 0 2
|  7>  Al 0.0 0.0 0.0
|  8> *
|  9>
| 10> %maxcore 5000
| 11>
| 12> %pal
| 13> nprocs 3
| 14> end
| 15>
| 16>
| 17>                          ****END OF INPUT****

CARTESIAN COORDINATES (ANGSTROEM)
---------------------------------
  Al     0.000000    0.000000    0.000000

 Total Charge           Charge          ....    0
 Multiplicity           Mult            ....    2
 Number of Electrons    NEL             ....   13
 Basis Dimension        Dim             ....   48

ORBITAL ENERGIES
----------------
                 SPIN UP ORBITALS
  NO   OCC          E(Eh)            E(eV)
   0   1.0000     -58.498419     -1591.8229
   1   1.0000      -4.909972      -133.6071
   2   1.0000      -3.224565       -87.7449
   3   1.0000      -3.217227       -87.5452
   4   1.0000      -3.217227       -87.5452
   5   1.0000      -0.425308       -11.5732
   6   1.0000      -0.217974        -5.9314
   7   0.0000       0.025341         0.6896
   8   0.0000       0.025341         0.6896
   9   0.0000       0.060760         1.6534
  10   0.0000       0.116069         3.1584
  11   0.0000       0.116069         3.1584

                 SPIN DOWN ORBITALS
  NO   OCC          E(Eh)            E(eV)
   0   1.0000     -58.495187     -1591.7350
   1   1.0000      -4.906361      -133.5089
   2   1.0000      -3.215586       -87.5005
   3   1.0000      -3.215586       -87.5005
   4   1.0000      -3.206184       -87.2447
   5   1.0000      -0.362975        -9.8771
   6   0.0000       0.032921         0.8958
   7   0.0000       0.032921         0.8958
   8   0.0000       0.065804         1.7906
   9   0.0000       0.071557         1.9472
  10   0.0000       0.118424         3.2225

E(0)                                       ...   -241.874447084
E(0)                                       ...   -241.874447084
E(CORR)                                    ...     -0.050875993
E(TOT)                                     ...   -241.925323078
E(CCSD(T))                                 ...   -241.926476113

MULLIKEN ATOMIC CHARGES AND SPIN DENSITIES
------------------------------------------
   0 Al:   -0.000000    1.000000
Sum of atomic charges       :   -0.0000000

LOEWDIN ATOMIC CHARGES AND SPIN DENSITIES
-----------------------------------------
   0 Al:   -0.000000    1.000000

FINAL SINGLE POINT ENERGY      -241.926476113242

DIPOLE MOMENT
-------------
                                X             Y             Z
Electronic contribution:      0.00000       0.00000      -0.00000
Nuclear contribution   :      0.00000       0.00000       0.00000
                        -----------------------------------------
Total Dipole Moment    :      0.00000       0.00000      -0.00000
                        -----------------------------------------
Magnitude (a.u.)       :      0.00000
Magnitude (Debye)      :      0.00000

Rotational constants in cm-1:     0.000000     0.000000     0.000000
Rotational constants in MHz :     0.000000     0.000000     0.000000

                             ****ORCA TERMINATED NORMALLY****
TOTAL RUN TIME: 0 days 0 hours 0 minutes 6 seconds 829 msec
