                         Program Version 4.2.0 -  RELEASE  -
|  1> #
|  2> # 14_Si CCSD(T)/Def2-TZVPPD
|  3> #
|  4> ! CCSD(T) Def2-TZVPPD tightscf
|  5>
|  6> *xyz 0 3
|  7>  Si 0.0 0.0 0.0
|  8> *
|  9>
| 10> %maxcore 5000
| 11>
| 12> %pal
| 13> nprocs 6
| 14> end
| 15>
| 16>
| 17>                          ****END OF INPUT****

CARTESIAN COORDINATES (ANGSTROEM)
---------------------------------
  Si     0.000000    0.000000    0.000000

 Total Charge           Charge          ....    0
 Multiplicity           Mult            ....    3
 Number of Electrons    NEL             ....   14
 Basis Dimension        Dim             ....   48

ORBITAL ENERGIES
----------------
                 SPIN UP ORBITALS
  NO   OCC          E(Eh)            E(eV)
   0   1.0000     -68.814043     -1872.5253
   1   1.0000      -6.160198      -167.6275
   2   1.0000      -4.268421      -116.1497
   3   1.0000      -4.268421      -116.1497
   4   1.0000      -4.257614      -115.8556
   5   1.0000      -0.619694       -16.8627
   6   1.0000      -0.301157        -8.1949
   7   1.0000      -0.301157        -8.1949
   8   0.0000      -0.003258        -0.0886
   9   0.0000       0.076367         2.0780
  10   0.0000       0.146942         3.9985
  11   0.0000       0.146942         3.9985
  12   0.0000       0.149995         4.0816

                 SPIN DOWN ORBITALS
  NO   OCC          E(Eh)            E(eV)
   0   1.0000     -68.803398     -1872.2356
   1   1.0000      -6.148987      -167.3225
   2   1.0000      -4.252382      -115.7132
   3   1.0000      -4.239126      -115.3525
   4   1.0000      -4.239126      -115.3525
   5   1.0000      -0.462375       -12.5819
   6   0.0000       0.016544         0.4502
   7   0.0000       0.060890         1.6569
   8   0.0000       0.060890         1.6569
   9   0.0000       0.087795         2.3890
  10   0.0000       0.162205         4.4138

E(0)                                       ...   -288.850921574
E(0)                                       ...   -288.850921574
E(CORR)                                    ...     -0.074575848
E(TOT)                                     ...   -288.925497422
E(CCSD(T))                                 ...   -288.928029121

MULLIKEN ATOMIC CHARGES AND SPIN DENSITIES
------------------------------------------
   0 Si:   -0.000000    2.000000
Sum of atomic charges       :   -0.0000000

LOEWDIN ATOMIC CHARGES AND SPIN DENSITIES
-----------------------------------------
   0 Si:   -0.000000    2.000000

FINAL SINGLE POINT ENERGY      -288.928029121001

DIPOLE MOMENT
-------------
                                X             Y             Z
Electronic contribution:     -0.00000       0.00000       0.00000
Nuclear contribution   :      0.00000       0.00000       0.00000
                        -----------------------------------------
Total Dipole Moment    :     -0.00000       0.00000       0.00000
                        -----------------------------------------
Magnitude (a.u.)       :      0.00000
Magnitude (Debye)      :      0.00000

Rotational constants in cm-1:     0.000000     0.000000     0.000000
Rotational constants in MHz :     0.000000     0.000000     0.000000

                             ****ORCA TERMINATED NORMALLY****
TOTAL RUN TIME: 0 days 0 hours 0 minutes 16 seconds 734 msec
