                         Program Version 4.2.0 -  RELEASE  -
|  1> #
|  2> # 15_P CCSD(T)/Def2-TZVPPD
|  3> #
|  4> ! CCSD(T) Def2-TZVPPD tightscf
|  5>
|  6> *xyz 0 4
|  7>  P 0.0 0.0 0.0
|  8> *
|  9>
| 10> %maxcore 5000
| 11>
| 12> %pal
| 13> nprocs 10
| 14> end
| 15>
| 16>
| 17>                          ****END OF INPUT****

CARTESIAN COORDINATES (ANGSTROEM)
---------------------------------
  P      0.000000    0.000000    0.000000

 Total Charge           Charge          ....    0
 Multiplicity           Mult            ....    4
 Number of Electrons    NEL             ....   15
 Basis Dimension        Dim             ....   48

ORBITAL ENERGIES
----------------
                 SPIN UP ORBITALS
  NO   OCC          E(Eh)            E(eV)
   0   1.0000     -79.978207     -2176.3177
   1   1.0000      -7.521576      -204.6725
   2   1.0000      -5.421204      -147.5185
   3   1.0000      -5.421204      -147.5185
   4   1.0000      -5.421204      -147.5185
   5   1.0000      -0.836022       -22.7493
   6   1.0000      -0.391799       -10.6614
   7   1.0000      -0.391799       -10.6614
   8   1.0000      -0.391799       -10.6614
   9   0.0000       0.098781         2.6880
  10   0.0000       0.188136         5.1195
  11   0.0000       0.188136         5.1195
  12   0.0000       0.188136         5.1195
  13   0.0000       0.188136         5.1195

                 SPIN DOWN ORBITALS
  NO   OCC          E(Eh)            E(eV)
   0   1.0000     -79.955882     -2175.7102
   1   1.0000      -7.499354      -204.0678
   2   1.0000      -5.379448      -146.3822
   3   1.0000      -5.379448      -146.3822
   4   1.0000      -5.379448      -146.3822
   5   1.0000      -0.555768       -15.1232
   6   0.0000       0.051048         1.3891
   7   0.0000       0.051048         1.3891
   8   0.0000       0.051048         1.3891
   9   0.0000       0.118477         3.2239
  10   0.0000       0.224062         6.0970

E(0)                                       ...   -340.710011742
E(0)                                       ...   -340.710011742
E(CORR)                                    ...     -0.101470068
E(TOT)                                     ...   -340.811481810
E(CCSD(T))                                 ...   -340.815422127

MULLIKEN ATOMIC CHARGES AND SPIN DENSITIES
------------------------------------------
   0 P :    0.000000    3.000000
Sum of atomic charges       :    0.0000000

LOEWDIN ATOMIC CHARGES AND SPIN DENSITIES
-----------------------------------------
   0 P :    0.000000    3.000000

FINAL SINGLE POINT ENERGY      -340.815422126895

DIPOLE MOMENT
-------------
                                X             Y             Z
Electronic contribution:     -0.00000      -0.00000      -0.00000
Nuclear contribution   :      0.00000       0.00000       0.00000
                        -----------------------------------------
Total Dipole Moment    :     -0.00000      -0.00000      -0.00000
                        -----------------------------------------
Magnitude (a.u.)       :      0.00000
Magnitude (Debye)      :      0.00000

Rotational constants in cm-1:     0.000000     0.000000     0.000000
Rotational constants in MHz :     0.000000     0.000000     0.000000

                             ****ORCA TERMINATED NORMALLY****
TOTAL RUN TIME: 0 days 0 hours 0 minutes 17 seconds 113 msec
