                         Program Version 4.2.0 -  RELEASE  -
|  1> #
|  2> # 16_S CCSD(T)/Def2-TZVPPD
|  3> #
|  4> ! CCSD(T) Def2-TZVPPD tightscf
|  5>
|  6> *xyz 0 3
|  7>  S 0.0 0.0 0.0
|  8> *
|  9>
| 10> %maxcore 5000
| 11>
| 12> %pal
| 13> nprocs 15
| 14> end
| 15>
| 16>
| 17>                          ****END OF INPUT****

CARTESIAN COORDINATES (ANGSTROEM)
---------------------------------
  S      0.000000    0.000000    0.000000

 Total Charge           Charge          ....    0
 Multiplicity           Mult            ....    3
 Number of Electrons    NEL             ....   16
 Basis Dimension        Dim             ....   51

ORBITAL ENERGIES
----------------
                 SPIN UP ORBITALS
  NO   OCC          E(Eh)            E(eV)
   0   1.0000     -92.011708     -2503.7659
   1   1.0000      -9.013428      -245.2679
   2   1.0000      -6.706670      -182.4978
   3   1.0000      -6.706670      -182.4978
   4   1.0000      -6.686152      -181.9395
   5   1.0000      -0.990088       -26.9417
   6   1.0000      -0.486866       -13.2483
   7   1.0000      -0.486866       -13.2483
   8   1.0000      -0.415570       -11.3082
   9   0.0000       0.079600         2.1660
  10   0.0000       0.079600         2.1660
  11   0.0000       0.086843         2.3631
  12   0.0000       0.105741         2.8774
  13   0.0000       0.208700         5.6790

                 SPIN DOWN ORBITALS
  NO   OCC          E(Eh)            E(eV)
   0   1.0000     -91.991961     -2503.2285
   1   1.0000      -8.994636      -244.7565
   2   1.0000      -6.675745      -181.6563
   3   1.0000      -6.659322      -181.2094
   4   1.0000      -6.659322      -181.2094
   5   1.0000      -0.774102       -21.0644
   6   1.0000      -0.378982       -10.3126
   7   0.0000       0.000440         0.0120
   8   0.0000       0.000440         0.0120
   9   0.0000       0.088250         2.4014
  10   0.0000       0.104481         2.8431
  11   0.0000       0.104481         2.8431

E(0)                                       ...   -397.502352613
E(0)                                       ...   -397.502352613
E(CORR)                                    ...     -0.140631356
E(TOT)                                     ...   -397.642983969
E(CCSD(T))                                 ...   -397.647888119

MULLIKEN ATOMIC CHARGES AND SPIN DENSITIES
------------------------------------------
   0 S :   -0.000000    2.000000
Sum of atomic charges       :   -0.0000000

LOEWDIN ATOMIC CHARGES AND SPIN DENSITIES
-----------------------------------------
   0 S :    0.000000    2.000000

FINAL SINGLE POINT ENERGY      -397.647888118692

DIPOLE MOMENT
-------------
                                X             Y             Z
Electronic contribution:      0.00000       0.00000      -0.00000
Nuclear contribution   :      0.00000       0.00000       0.00000
                        -----------------------------------------
Total Dipole Moment    :      0.00000       0.00000      -0.00000
                        -----------------------------------------
Magnitude (a.u.)       :      0.00000
Magnitude (Debye)      :      0.00000

Rotational constants in cm-1:     0.000000     0.000000     0.000000
Rotational constants in MHz :     0.000000     0.000000     0.000000

                             ****ORCA TERMINATED NORMALLY****
TOTAL RUN TIME: 0 days 0 hours 0 minutes 13 seconds 409 msec
