                         Program Version 4.2.0 -  RELEASE  -
|  1> #
|  2> # 17_Cl CCSD(T)/Def2-TZVPPD
|  3> #
|  4> ! CCSD(T) Def2-TZVPPD tightscf
|  5>
|  6> *xyz 0 2
|  7>  Cl 0.0 0.0 0.0
|  8> *
|  9>
| 10> %maxcore 5000
| 11>
| 12> %pal
| 13> nprocs 21
| 14> end
| 15>
| 16>
| 17>                          ****END OF INPUT****

CARTESIAN COORDINATES (ANGSTROEM)
---------------------------------
  Cl     0.000000    0.000000    0.000000

 Total Charge           Charge          ....    0
 Multiplicity           Mult            ....    2
 Number of Electrons    NEL             ....   17
 Basis Dimension        Dim             ....   51

ORBITAL ENERGIES
----------------
                 SPIN UP ORBITALS
  NO   OCC          E(Eh)            E(eV)
   0   1.0000    -104.888374     -2854.1578
   1   1.0000     -10.613470      -288.8072
   2   1.0000      -8.099332      -220.3940
   3   1.0000      -8.074997      -219.7318
   4   1.0000      -8.074997      -219.7318
   5   1.0000      -1.136620       -30.9290
   6   1.0000      -0.581761       -15.8305
   7   1.0000      -0.502686       -13.6788
   8   1.0000      -0.502686       -13.6788
   9   0.0000       0.090720         2.4686
  10   0.0000       0.097936         2.6650
  11   0.0000       0.097936         2.6650
  12   0.0000       0.131981         3.5914
  13   0.0000       0.259234         7.0541

                 SPIN DOWN ORBITALS
  NO   OCC          E(Eh)            E(eV)
   0   1.0000    -104.876111     -2853.8241
   1   1.0000     -10.602252      -288.5019
   2   1.0000      -8.068754      -219.5620
   3   1.0000      -8.068754      -219.5620
   4   1.0000      -8.049036      -219.0254
   5   1.0000      -1.014861       -27.6158
   6   1.0000      -0.480764       -13.0823
   7   1.0000      -0.480764       -13.0823
   8   0.0000      -0.041970        -1.1421
   9   0.0000       0.098631         2.6839
  10   0.0000       0.098631         2.6839
  11   0.0000       0.109185         2.9711
  12   0.0000       0.138523         3.7694

E(0)                                       ...   -459.477169015
E(0)                                       ...   -459.477169015
E(CORR)                                    ...     -0.183050595
E(TOT)                                     ...   -459.660219610
E(CCSD(T))                                 ...   -459.666241228

MULLIKEN ATOMIC CHARGES AND SPIN DENSITIES
------------------------------------------
   0 Cl:   -0.000000    1.000000
Sum of atomic charges       :   -0.0000000

LOEWDIN ATOMIC CHARGES AND SPIN DENSITIES
-----------------------------------------
   0 Cl:   -0.000000    1.000000

FINAL SINGLE POINT ENERGY      -459.666241227968

DIPOLE MOMENT
-------------
                                X             Y             Z
Electronic contribution:     -0.00000      -0.00000       0.00000
Nuclear contribution   :      0.00000       0.00000       0.00000
                        -----------------------------------------
Total Dipole Moment    :     -0.00000      -0.00000       0.00000
                        -----------------------------------------
Magnitude (a.u.)       :      0.00000
Magnitude (Debye)      :      0.00000

Rotational constants in cm-1:     0.000000     0.000000     0.000000
Rotational constants in MHz :     0.000000     0.000000     0.000000

                             ****ORCA TERMINATED NORMALLY****
TOTAL RUN TIME: 0 days 0 hours 0 minutes 19 seconds 773 msec
