                         Program Version 4.2.0 -  RELEASE  -
|  1> #
|  2> # 18_Ar CCSD(T)/Def2-TZVPPD
|  3> #
|  4> ! CCSD(T) Def2-TZVPPD tightscf
|  5>
|  6> *xyz 0 1
|  7>  Ar 0.0 0.0 0.0
|  8> *
|  9>
| 10> %maxcore 5000
| 11>
| 12> %pal
| 13> nprocs 10
| 14> end
| 15>
| 16>
| 17>                          ****END OF INPUT****

CARTESIAN COORDINATES (ANGSTROEM)
---------------------------------
  Ar     0.000000    0.000000    0.000000

 Total Charge           Charge          ....    0
 Multiplicity           Mult            ....    1
 Number of Electrons    NEL             ....   18
 Basis Dimension        Dim             ....   51

ORBITAL ENERGIES
----------------

  NO   OCC          E(Eh)            E(eV)
   0   2.0000    -118.609683     -3227.5336
   1   2.0000     -12.324237      -335.3595
   2   2.0000      -9.573470      -260.5074
   3   2.0000      -9.573470      -260.5074
   4   2.0000      -9.573470      -260.5074
   5   2.0000      -1.278217       -34.7821
   6   2.0000      -0.591450       -16.0942
   7   2.0000      -0.591450       -16.0942
   8   2.0000      -0.591450       -16.0942
   9   0.0000       0.113083         3.0771
  10   0.0000       0.113083         3.0771
  11   0.0000       0.113083         3.0771
  12   0.0000       0.162986         4.4351
  13   0.0000       0.326434         8.8827

E(0)                                       ...   -526.803068646
E(0)                                       ...   -526.803068646
E(CORR)                                    ...     -0.226989323
E(TOT)                                     ...   -527.030057969
E(CCSD(T))                                 ...   -527.037251651

MULLIKEN ATOMIC CHARGES
-----------------------
   0 Ar:   -0.000000
Sum of atomic charges:   -0.0000000

LOEWDIN ATOMIC CHARGES
----------------------
   0 Ar:   -0.000000

FINAL SINGLE POINT ENERGY      -527.037251651216

DIPOLE MOMENT
-------------
                                X             Y             Z
Electronic contribution:      0.00000      -0.00000       0.00000
Nuclear contribution   :      0.00000       0.00000       0.00000
                        -----------------------------------------
Total Dipole Moment    :      0.00000      -0.00000       0.00000
                        -----------------------------------------
Magnitude (a.u.)       :      0.00000
Magnitude (Debye)      :      0.00000

Rotational constants in cm-1:     0.000000     0.000000     0.000000
Rotational constants in MHz :     0.000000     0.000000     0.000000

                             ****ORCA TERMINATED NORMALLY****
TOTAL RUN TIME: 0 days 0 hours 0 minutes 9 seconds 213 msec
