                         Program Version 4.2.0 -  RELEASE  -
|  1> #
|  2> # 19_K CCSD(T)/Def2-TZVPPD
|  3> #
|  4> ! CCSD(T) Def2-TZVPPD tightscf
|  5>
|  6> *xyz 0 2
|  7>  K 0.0 0.0 0.0
|  8> *
|  9>
| 10> %maxcore 5000
| 11>
| 12> %pal
| 13> nprocs 24
| 14> end
| 15>
| 16>
| 17>                          ****END OF INPUT****

CARTESIAN COORDINATES (ANGSTROEM)
---------------------------------
  K      0.000000    0.000000    0.000000

 Total Charge           Charge          ....    0
 Multiplicity           Mult            ....    2
 Number of Electrons    NEL             ....   19
 Basis Dimension        Dim             ....   36

ORBITAL ENERGIES
----------------
                 SPIN UP ORBITALS
  NO   OCC          E(Eh)            E(eV)
   0   1.0000    -133.531978     -3633.5899
   1   1.0000     -14.489867      -394.2893
   2   1.0000     -11.518357      -313.4304
   3   1.0000     -11.518357      -313.4304
   4   1.0000     -11.518357      -313.4304
   5   1.0000      -1.751048       -47.6484
   6   1.0000      -0.955150       -25.9910
   7   1.0000      -0.955150       -25.9910
   8   1.0000      -0.955150       -25.9910
   9   1.0000      -0.147658        -4.0180
  10   0.0000       0.014203         0.3865
  11   0.0000       0.014203         0.3865
  12   0.0000       0.014203         0.3865
  13   0.0000       0.065634         1.7860
  14   0.0000       0.102294         2.7836

                 SPIN DOWN ORBITALS
  NO   OCC          E(Eh)            E(eV)
   0   1.0000    -133.531112     -3633.5663
   1   1.0000     -14.488104      -394.2414
   2   1.0000     -11.517998      -313.4206
   3   1.0000     -11.517998      -313.4206
   4   1.0000     -11.517998      -313.4206
   5   1.0000      -1.746084       -47.5134
   6   1.0000      -0.953422       -25.9439
   7   1.0000      -0.953422       -25.9439
   8   1.0000      -0.953422       -25.9439
   9   0.0000       0.011444         0.3114
  10   0.0000       0.031570         0.8591
  11   0.0000       0.031570         0.8591
  12   0.0000       0.031570         0.8591
  13   0.0000       0.095034         2.5860

E(0)                                       ...   -599.153366678
E(0)                                       ...   -599.153366678
E(CORR)                                    ...     -0.170782700
E(TOT)                                     ...   -599.324149378
E(CCSD(T))                                 ...   -599.326238914

MULLIKEN ATOMIC CHARGES AND SPIN DENSITIES
------------------------------------------
   0 K :   -0.000000    1.000000
Sum of atomic charges       :   -0.0000000

LOEWDIN ATOMIC CHARGES AND SPIN DENSITIES
-----------------------------------------
   0 K :   -0.000000    1.000000

FINAL SINGLE POINT ENERGY      -599.326238913775

DIPOLE MOMENT
-------------
                                X             Y             Z
Electronic contribution:      0.00000      -0.00000       0.00000
Nuclear contribution   :      0.00000       0.00000       0.00000
                        -----------------------------------------
Total Dipole Moment    :      0.00000      -0.00000       0.00000
                        -----------------------------------------
Magnitude (a.u.)       :      0.00000
Magnitude (Debye)      :      0.00000

Rotational constants in cm-1:     0.000000     0.000000     0.000000
Rotational constants in MHz :     0.000000     0.000000     0.000000

                             ****ORCA TERMINATED NORMALLY****
TOTAL RUN TIME: 0 days 0 hours 0 minutes 13 seconds 650 msec
