                         Program Version 4.2.0 -  RELEASE  -
|  1> #
|  2> # 22_Ti CCSD(T)/Def2-TZVPPD
|  3> #
|  4> ! CCSD(T) Def2-TZVPPD tightscf
|  5>
|  6> *xyz 0 3
|  7>  Ti 0.0 0.0 0.0
|  8> *
|  9>
| 10> %maxcore 5000
| 11>
| 12> %pal
| 13> nprocs 24
| 14> end
| 15>
| 16>
| 17>                          ****END OF INPUT****

CARTESIAN COORDINATES (ANGSTROEM)
---------------------------------
  Ti     0.000000    0.000000    0.000000

 Total Charge           Charge          ....    0
 Multiplicity           Mult            ....    3
 Number of Electrons    NEL             ....   22
 Basis Dimension        Dim             ....   67

ORBITAL ENERGIES
----------------
                 SPIN UP ORBITALS
  NO   OCC          E(Eh)            E(eV)
   0   1.0000    -183.273960     -4987.1380
   1   1.0000     -21.439660      -583.4028
   2   1.0000     -17.807852      -484.5763
   3   1.0000     -17.807851      -484.5763
   4   1.0000     -17.807851      -484.5763
   5   1.0000      -2.936860       -79.9160
   6   1.0000      -1.874764       -51.0149
   7   1.0000      -1.874763       -51.0149
   8   1.0000      -1.874761       -51.0148
   9   1.0000      -0.447600       -12.1798
  10   1.0000      -0.447600       -12.1798
  11   1.0000      -0.232069        -6.3149
  12   0.0000       0.022099         0.6013
  13   0.0000       0.022099         0.6014
  14   0.0000       0.022099         0.6014
  15   0.0000       0.109802         2.9879
  16   0.0000       0.109802         2.9879

                 SPIN DOWN ORBITALS
  NO   OCC          E(Eh)            E(eV)
   0   1.0000    -183.273726     -4987.1316
   1   1.0000     -21.406165      -582.4914
   2   1.0000     -17.774506      -483.6689
   3   1.0000     -17.774504      -483.6689
   4   1.0000     -17.774504      -483.6688
   5   1.0000      -2.809146       -76.4408
   6   1.0000      -1.716766       -46.7156
   7   1.0000      -1.716763       -46.7155
   8   1.0000      -1.716761       -46.7154
   9   1.0000      -0.210079        -5.7165
  10   0.0000       0.023713         0.6453
  11   0.0000       0.023713         0.6453
  12   0.0000       0.023713         0.6453
  13   0.0000       0.120631         3.2825
  14   0.0000       0.120632         3.2826

E(0)                                       ...   -848.397243783
E(0)                                       ...   -848.397243783
E(CORR)                                    ...     -0.315313142
E(TOT)                                     ...   -848.712556925
E(CCSD(T))                                 ...   -848.722441300

MULLIKEN ATOMIC CHARGES AND SPIN DENSITIES
------------------------------------------
   0 Ti:   -0.000000    2.000000
Sum of atomic charges       :   -0.0000000

LOEWDIN ATOMIC CHARGES AND SPIN DENSITIES
-----------------------------------------
   0 Ti:   -0.000000    2.000000

FINAL SINGLE POINT ENERGY      -848.722441300039

DIPOLE MOMENT
-------------
                                X             Y             Z
Electronic contribution:      0.00000       0.00000       0.00000
Nuclear contribution   :      0.00000       0.00000       0.00000
                        -----------------------------------------
Total Dipole Moment    :      0.00000       0.00000       0.00000
                        -----------------------------------------
Magnitude (a.u.)       :      0.00000
Magnitude (Debye)      :      0.00000

Rotational constants in cm-1:     0.000000     0.000000     0.000000
Rotational constants in MHz :     0.000000     0.000000     0.000000

                             ****ORCA TERMINATED NORMALLY****
TOTAL RUN TIME: 0 days 0 hours 0 minutes 54 seconds 703 msec
