                         Program Version 4.2.0 -  RELEASE  -
|  1> #
|  2> # 23_V CCSD(T)/Def2-TZVP
|  3> #
|  4> ! CCSD(T) Def2-TZVPPD tightscf veryslowconv kdiis
|  5>
|  6> *xyz 0 4
|  7>  V 0.0 0.0 0.0
|  8> *
|  9>
| 10> %maxcore 5000
| 11>
| 12> %pal
| 13> nprocs 24
| 14> end
| 15>
| 16> %scf
| 17> maxiter 200
| 18> diismaxeq 40
| 19> directresetfreq 1
| 20> end
| 21>
| 22> %mdci
| 23> maxdiis 25
| 24> maxiter 100
| 25> end
| 26>
| 27>
| 28>                          ****END OF INPUT****

CARTESIAN COORDINATES (ANGSTROEM)
---------------------------------
  V      0.000000    0.000000    0.000000

 Total Charge           Charge          ....    0
 Multiplicity           Mult            ....    4
 Number of Electrons    NEL             ....   23
 Basis Dimension        Dim             ....   67

ORBITAL ENERGIES
----------------
                 SPIN UP ORBITALS
  NO   OCC          E(Eh)            E(eV)
   0   1.0000    -201.344446     -5478.8609
   1   1.0000     -23.712966      -645.2626
   2   1.0000     -19.866844      -540.6043
   3   1.0000     -19.866776      -540.6025
   4   1.0000     -19.865544      -540.5689
   5   1.0000      -3.110530       -84.6418
   6   1.0000      -2.031709       -55.2856
   7   1.0000      -1.973885       -53.7121
   8   1.0000      -1.973569       -53.7035
   9   1.0000      -0.344493        -9.3741
  10   1.0000      -0.327659        -8.9161
  11   1.0000      -0.327211        -8.9039
  12   1.0000      -0.264197        -7.1892
  13   0.0000       0.007023         0.1911
  14   0.0000       0.039118         1.0644
  15   0.0000       0.046829         1.2743
  16   0.0000       0.046943         1.2774
  17   0.0000       0.152921         4.1612

                 SPIN DOWN ORBITALS
  NO   OCC          E(Eh)            E(eV)
   0   1.0000    -201.344535     -5478.8633
   1   1.0000     -23.652155      -643.6079
   2   1.0000     -19.812459      -539.1244
   3   1.0000     -19.812262      -539.1191
   4   1.0000     -19.792937      -538.5932
   5   1.0000      -2.885124       -78.5082
   6   1.0000      -1.733914       -47.1822
   7   1.0000      -1.733342       -47.1666
   8   1.0000      -1.675082       -45.5813
   9   1.0000      -0.025796        -0.7020
  10   0.0000       0.006245         0.1699
  11   0.0000       0.039224         1.0673
  12   0.0000       0.039305         1.0695
  13   0.0000       0.040925         1.1136
  14   0.0000       0.165332         4.4989

E(0)                                       ...   -942.671890672
E(0)                                       ...   -942.671890672
E(CORR)                                    ...     -0.413216203
E(TOT)                                     ...   -943.085106875
E(CCSD(T))                                 ...   -943.111741311

MULLIKEN ATOMIC CHARGES AND SPIN DENSITIES
------------------------------------------
   0 V :    0.000000    3.000000
Sum of atomic charges       :    0.0000000

LOEWDIN ATOMIC CHARGES AND SPIN DENSITIES
-----------------------------------------
   0 V :   -0.000000    3.000000

FINAL SINGLE POINT ENERGY      -943.111741311465

DIPOLE MOMENT
-------------
                                X             Y             Z
Electronic contribution:     -0.00017       0.00000      -0.00005
Nuclear contribution   :      0.00000       0.00000       0.00000
                        -----------------------------------------
Total Dipole Moment    :     -0.00017       0.00000      -0.00005
                        -----------------------------------------
Magnitude (a.u.)       :      0.00017
Magnitude (Debye)      :      0.00044

Rotational constants in cm-1:     0.000000     0.000000     0.000000
Rotational constants in MHz :     0.000000     0.000000     0.000000

                             ****ORCA TERMINATED NORMALLY****
TOTAL RUN TIME: 0 days 0 hours 0 minutes 40 seconds 910 msec
