                         Program Version 4.2.0 -  RELEASE  -
|  1> #
|  2> # 24_Cr CCSD(T)/Def2-TZVPPD
|  3> #
|  4> ! CCSD(T) Def2-TZVPPD tightscf
|  5>
|  6> *xyz 0 7
|  7>  Cr 0.0 0.0 0.0
|  8> *
|  9>
| 10> %maxcore 5000
| 11>
| 12> %pal
| 13> nprocs 24
| 14> end
| 15>
| 16>
| 17>                          ****END OF INPUT****

CARTESIAN COORDINATES (ANGSTROEM)
---------------------------------
  Cr     0.000000    0.000000    0.000000

 Total Charge           Charge          ....    0
 Multiplicity           Mult            ....    7
 Number of Electrons    NEL             ....   24
 Basis Dimension        Dim             ....   67

ORBITAL ENERGIES
----------------
                 SPIN UP ORBITALS
  NO   OCC          E(Eh)            E(eV)
   0   1.0000    -220.390111     -5997.1198
   1   1.0000     -26.262362      -714.6352
   2   1.0000     -22.191204      -603.8534
   3   1.0000     -22.191204      -603.8534
   4   1.0000     -22.191204      -603.8534
   5   1.0000      -3.459917       -94.1491
   6   1.0000      -2.262706       -61.5714
   7   1.0000      -2.262706       -61.5714
   8   1.0000      -2.262706       -61.5714
   9   1.0000      -0.373577       -10.1655
  10   1.0000      -0.373577       -10.1655
  11   1.0000      -0.373577       -10.1655
  12   1.0000      -0.373577       -10.1655
  13   1.0000      -0.373577       -10.1655
  14   1.0000      -0.222475        -6.0539
  15   0.0000       0.027726         0.7545
  16   0.0000       0.027726         0.7545
  17   0.0000       0.027726         0.7545
  18   0.0000       0.138175         3.7599
  19   0.0000       0.138175         3.7599

                 SPIN DOWN ORBITALS
  NO   OCC          E(Eh)            E(eV)
   0   1.0000    -220.388032     -5997.0632
   1   1.0000     -26.161006      -711.8772
   2   1.0000     -22.092674      -601.1722
   3   1.0000     -22.092674      -601.1722
   4   1.0000     -22.092674      -601.1722
   5   1.0000      -3.112353       -84.6914
   6   1.0000      -1.841039       -50.0972
   7   1.0000      -1.841039       -50.0972
   8   1.0000      -1.841039       -50.0972
   9   0.0000       0.031069         0.8454
  10   0.0000       0.052091         1.4175
  11   0.0000       0.052091         1.4175
  12   0.0000       0.052091         1.4175
  13   0.0000       0.158510         4.3133

E(0)                                       ...  -1043.334658176
E(0)                                       ...  -1043.334658176
E(CORR)                                    ...     -0.407707373
E(TOT)                                     ...  -1043.742365550
E(CCSD(T))                                 ...  -1043.752629950

MULLIKEN ATOMIC CHARGES AND SPIN DENSITIES
------------------------------------------
   0 Cr:   -0.000000    6.000000
Sum of atomic charges       :   -0.0000000

LOEWDIN ATOMIC CHARGES AND SPIN DENSITIES
-----------------------------------------
   0 Cr:    0.000000    6.000000

FINAL SINGLE POINT ENERGY     -1043.752629949811

DIPOLE MOMENT
-------------
                                X             Y             Z
Electronic contribution:      0.00000       0.00000       0.00000
Nuclear contribution   :      0.00000       0.00000       0.00000
                        -----------------------------------------
Total Dipole Moment    :      0.00000       0.00000       0.00000
                        -----------------------------------------
Magnitude (a.u.)       :      0.00000
Magnitude (Debye)      :      0.00000

Rotational constants in cm-1:     0.000000     0.000000     0.000000
Rotational constants in MHz :     0.000000     0.000000     0.000000

                             ****ORCA TERMINATED NORMALLY****
TOTAL RUN TIME: 0 days 0 hours 0 minutes 16 seconds 241 msec
