                         Program Version 4.2.0 -  RELEASE  -
|  1> #
|  2> # 25_Mn CCSD(T)/Def2-TZVPPD
|  3> #
|  4> ! CCSD(T) Def2-TZVPPD tightscf
|  5>
|  6> *xyz 0 6
|  7>  Mn 0.0 0.0 0.0
|  8> *
|  9>
| 10> %maxcore 5000
| 11>
| 12> %pal
| 13> nprocs 24
| 14> end
| 15>
| 16>
| 17>                          ****END OF INPUT****

CARTESIAN COORDINATES (ANGSTROEM)
---------------------------------
  Mn     0.000000    0.000000    0.000000

 Total Charge           Charge          ....    0
 Multiplicity           Mult            ....    6
 Number of Electrons    NEL             ....   25
 Basis Dimension        Dim             ....   67

ORBITAL ENERGIES
----------------
                 SPIN UP ORBITALS
  NO   OCC          E(Eh)            E(eV)
   0   1.0000    -240.367147     -6540.7226
   1   1.0000     -28.966443      -788.2170
   2   1.0000     -24.689025      -671.8225
   3   1.0000     -24.663580      -671.1301
   4   1.0000     -24.663577      -671.1300
   5   1.0000      -3.784092      -102.9704
   6   1.0000      -2.534452       -68.9659
   7   1.0000      -2.471462       -67.2519
   8   1.0000      -2.471454       -67.2517
   9   1.0000      -0.446968       -12.1626
  10   1.0000      -0.439430       -11.9575
  11   1.0000      -0.439427       -11.9574
  12   1.0000      -0.414900       -11.2900
  13   1.0000      -0.371208       -10.1011
  14   1.0000      -0.226474        -6.1627
  15   0.0000       0.029750         0.8095
  16   0.0000       0.035067         0.9542
  17   0.0000       0.035067         0.9542
  18   0.0000       0.165150         4.4940
  19   0.0000       0.173526         4.7219

                 SPIN DOWN ORBITALS
  NO   OCC          E(Eh)            E(eV)
   0   1.0000    -240.364170     -6540.6416
   1   1.0000     -28.866332      -785.4928
   2   1.0000     -24.575350      -668.7293
   3   1.0000     -24.575099      -668.7224
   4   1.0000     -24.575099      -668.7224
   5   1.0000      -3.467795       -94.3635
   6   1.0000      -2.128826       -57.9283
   7   1.0000      -2.128820       -57.9281
   8   1.0000      -2.082544       -56.6689
   9   1.0000      -0.227146        -6.1810
  10   0.0000       0.029459         0.8016
  11   0.0000       0.058969         1.6046
  12   0.0000       0.059877         1.6293
  13   0.0000       0.059877         1.6293
  14   0.0000       0.217340         5.9141

E(0)                                       ...  -1149.730172180
E(0)                                       ...  -1149.730172180
E(CORR)                                    ...     -0.482631517
E(TOT)                                     ...  -1150.212803698
E(CCSD(T))                                 ...  -1150.226783515

MULLIKEN ATOMIC CHARGES AND SPIN DENSITIES
------------------------------------------
   0 Mn:    0.000000    5.000000
Sum of atomic charges       :    0.0000000

LOEWDIN ATOMIC CHARGES AND SPIN DENSITIES
-----------------------------------------
   0 Mn:    0.000000    5.000000

FINAL SINGLE POINT ENERGY     -1150.226783514577

DIPOLE MOMENT
-------------
                                X             Y             Z
Electronic contribution:     -0.00000      -0.00000      -0.00000
Nuclear contribution   :      0.00000       0.00000       0.00000
                        -----------------------------------------
Total Dipole Moment    :     -0.00000      -0.00000      -0.00000
                        -----------------------------------------
Magnitude (a.u.)       :      0.00000
Magnitude (Debye)      :      0.00000

Rotational constants in cm-1:     0.000000     0.000000     0.000000
Rotational constants in MHz :     0.000000     0.000000     0.000000

                             ****ORCA TERMINATED NORMALLY****
TOTAL RUN TIME: 0 days 0 hours 0 minutes 15 seconds 316 msec
