                         Program Version 4.2.0 -  RELEASE  -
|  1> #
|  2> # 26_Fe CCSD(T)/Def2-TZVPPD
|  3> #
|  4> ! CCSD(T) Def2-TZVPPD tightscf veryslowconv kdiis
|  5>
|  6> *xyz 0 5
|  7>  Fe 0.0 0.0 0.0
|  8> *
|  9>
| 10> %maxcore 5000
| 11>
| 12> %pal
| 13> nprocs 24
| 14> end
| 15>
| 16>
| 17>                          ****END OF INPUT****

CARTESIAN COORDINATES (ANGSTROEM)
---------------------------------
  Fe     0.000000    0.000000    0.000000

 Total Charge           Charge          ....    0
 Multiplicity           Mult            ....    5
 Number of Electrons    NEL             ....   26
 Basis Dimension        Dim             ....   67

ORBITAL ENERGIES
----------------
                 SPIN UP ORBITALS
  NO   OCC          E(Eh)            E(eV)
   0   1.0000    -261.187134     -7107.2633
   1   1.0000     -31.765182      -864.3746
   2   1.0000     -27.256172      -741.6782
   3   1.0000     -27.256172      -741.6782
   4   1.0000     -27.225844      -740.8529
   5   1.0000      -4.091540      -111.3365
   6   1.0000      -2.727302       -74.2137
   7   1.0000      -2.727302       -74.2137
   8   1.0000      -2.656572       -72.2890
   9   1.0000      -0.487883       -13.2760
  10   1.0000      -0.487883       -13.2760
  11   1.0000      -0.450730       -12.2650
  12   1.0000      -0.412226       -11.2172
  13   1.0000      -0.412226       -11.2172
  14   1.0000      -0.229506        -6.2452
  15   0.0000       0.035543         0.9672
  16   0.0000       0.035543         0.9672
  17   0.0000       0.040125         1.0918
  18   0.0000       0.186806         5.0833
  19   0.0000       0.186806         5.0833

                 SPIN DOWN ORBITALS
  NO   OCC          E(Eh)            E(eV)
   0   1.0000    -261.183905     -7107.1754
   1   1.0000     -31.677934      -862.0004
   2   1.0000     -27.162504      -739.1293
   3   1.0000     -27.162087      -739.1180
   4   1.0000     -27.162087      -739.1180
   5   1.0000      -3.833268      -104.3085
   6   1.0000      -2.432148       -66.1821
   7   1.0000      -2.379752       -64.7563
   8   1.0000      -2.379752       -64.7563
   9   1.0000      -0.305281        -8.3071
  10   1.0000      -0.305281        -8.3071
  11   0.0000       0.028002         0.7620
  12   0.0000       0.063601         1.7307
  13   0.0000       0.063601         1.7307
  14   0.0000       0.064657         1.7594
  15   0.0000       0.233521         6.3544

E(0)                                       ...  -1262.347876783
E(0)                                       ...  -1262.347876783
E(CORR)                                    ...     -0.546512469
E(TOT)                                     ...  -1262.894389252
E(CCSD(T))                                 ...  -1262.911778922

MULLIKEN ATOMIC CHARGES AND SPIN DENSITIES
------------------------------------------
   0 Fe:    0.000000    4.000000
Sum of atomic charges       :    0.0000000

LOEWDIN ATOMIC CHARGES AND SPIN DENSITIES
-----------------------------------------
   0 Fe:   -0.000000    4.000000

FINAL SINGLE POINT ENERGY     -1262.911778921815

DIPOLE MOMENT
-------------
                                X             Y             Z
Electronic contribution:     -0.00000       0.00000      -0.00000
Nuclear contribution   :      0.00000       0.00000       0.00000
                        -----------------------------------------
Total Dipole Moment    :     -0.00000       0.00000      -0.00000
                        -----------------------------------------
Magnitude (a.u.)       :      0.00000
Magnitude (Debye)      :      0.00000

Rotational constants in cm-1:     0.000000     0.000000     0.000000
Rotational constants in MHz :     0.000000     0.000000     0.000000

                             ****ORCA TERMINATED NORMALLY****
TOTAL RUN TIME: 0 days 0 hours 0 minutes 16 seconds 181 msec
