                         Program Version 4.2.0 -  RELEASE  -
|  1> #
|  2> # 28_Ni CCSD(T)/Def2-TZVPPD
|  3> #
|  4> ! CCSD(T) Def2-TZVPPD tightscf slowconv
|  5>
|  6> *xyz 0 3
|  7>  Ni 0.0 0.0 0.0
|  8> *
|  9>
| 10> %maxcore 5000
| 11>
| 12> %pal
| 13> nprocs 24
| 14> end
| 15>
| 16>
| 17>                          ****END OF INPUT****

CARTESIAN COORDINATES (ANGSTROEM)
---------------------------------
  Ni     0.000000    0.000000    0.000000

 Total Charge           Charge          ....    0
 Multiplicity           Mult            ....    3
 Number of Electrons    NEL             ....   28
 Basis Dimension        Dim             ....   67

ORBITAL ENERGIES
----------------
                 SPIN UP ORBITALS
  NO   OCC          E(Eh)            E(eV)
   0   1.0000    -305.405771     -8310.5135
   1   1.0000     -37.694280     -1025.7135
   2   1.0000     -32.733768      -890.7311
   3   1.0000     -32.733721      -890.7298
   4   1.0000     -32.697143      -889.7345
   5   1.0000      -4.706262      -128.0639
   6   1.0000      -3.145431       -85.5915
   7   1.0000      -3.145328       -85.5887
   8   1.0000      -3.066214       -83.4359
   9   1.0000      -0.548527       -14.9262
  10   1.0000      -0.492356       -13.3977
  11   1.0000      -0.462462       -12.5842
  12   1.0000      -0.462423       -12.5832
  13   1.0000      -0.451655       -12.2901
  14   1.0000      -0.236331        -6.4309
  15   0.0000       0.042487         1.1561
  16   0.0000       0.042493         1.1563
  17   0.0000       0.046746         1.2720
  18   0.0000       0.222921         6.0660
  19   0.0000       0.222932         6.0663

                 SPIN DOWN ORBITALS
  NO   OCC          E(Eh)            E(eV)
   0   1.0000    -305.403199     -8310.4435
   1   1.0000     -37.657499     -1024.7126
   2   1.0000     -32.688585      -889.5016
   3   1.0000     -32.687059      -889.4601
   4   1.0000     -32.687057      -889.4600
   5   1.0000      -4.606215      -125.3415
   6   1.0000      -3.041802       -82.7716
   7   1.0000      -2.986791       -81.2747
   8   1.0000      -2.986719       -81.2728
   9   1.0000      -0.475793       -12.9470
  10   1.0000      -0.419126       -11.4050
  11   1.0000      -0.419053       -11.4030
  12   1.0000      -0.400072       -10.8865
  13   0.0000       0.025920         0.7053
  14   0.0000       0.071773         1.9530
  15   0.0000       0.071775         1.9531
  16   0.0000       0.072928         1.9845
  17   0.0000       0.265595         7.2272

E(0)                                       ...  -1506.797413817
E(0)                                       ...  -1506.797413817
E(CORR)                                    ...     -0.674233089
E(TOT)                                     ...  -1507.471646907
E(CCSD(T))                                 ...  -1507.491401145

MULLIKEN ATOMIC CHARGES AND SPIN DENSITIES
------------------------------------------
   0 Ni:    0.000000    2.000000
Sum of atomic charges       :    0.0000000

LOEWDIN ATOMIC CHARGES AND SPIN DENSITIES
-----------------------------------------
   0 Ni:   -0.000000    2.000000

FINAL SINGLE POINT ENERGY     -1507.491401145100

DIPOLE MOMENT
-------------
                                X             Y             Z
Electronic contribution:      0.00000      -0.00000       0.00000
Nuclear contribution   :      0.00000       0.00000       0.00000
                        -----------------------------------------
Total Dipole Moment    :      0.00000      -0.00000       0.00000
                        -----------------------------------------
Magnitude (a.u.)       :      0.00000
Magnitude (Debye)      :      0.00000

Rotational constants in cm-1:     0.000000     0.000000     0.000000
Rotational constants in MHz :     0.000000     0.000000     0.000000

                             ****ORCA TERMINATED NORMALLY****
TOTAL RUN TIME: 0 days 0 hours 0 minutes 18 seconds 701 msec
