                         Program Version 4.2.0 -  RELEASE  -
|  1> #
|  2> # 29_Cu CCSD(T)/Def2-TZVPPD
|  3> #
|  4> ! CCSD(T) Def2-TZVPPD tightscf
|  5>
|  6> *xyz 0 2
|  7>  Cu 0.0 0.0 0.0
|  8> *
|  9>
| 10> %maxcore 5000
| 11>
| 12> %pal
| 13> nprocs 24
| 14> end
| 15>
| 16>
| 17>                          ****END OF INPUT****

CARTESIAN COORDINATES (ANGSTROEM)
---------------------------------
  Cu     0.000000    0.000000    0.000000

 Total Charge           Charge          ....    0
 Multiplicity           Mult            ....    2
 Number of Electrons    NEL             ....   29
 Basis Dimension        Dim             ....   67

ORBITAL ENERGIES
----------------
                 SPIN UP ORBITALS
  NO   OCC          E(Eh)            E(eV)
   0   1.0000    -328.799186     -8947.0807
   1   1.0000     -40.823022     -1110.8509
   2   1.0000     -35.621166      -969.3012
   3   1.0000     -35.621166      -969.3012
   4   1.0000     -35.621166      -969.3012
   5   1.0000      -5.014570      -136.4534
   6   1.0000      -3.324444       -90.4627
   7   1.0000      -3.324444       -90.4627
   8   1.0000      -3.324444       -90.4627
   9   1.0000      -0.489475       -13.3193
  10   1.0000      -0.489475       -13.3193
  11   1.0000      -0.489475       -13.3193
  12   1.0000      -0.489475       -13.3193
  13   1.0000      -0.489475       -13.3193
  14   1.0000      -0.240228        -6.5369
  15   0.0000       0.042326         1.1517
  16   0.0000       0.042326         1.1517
  17   0.0000       0.042326         1.1517
  18   0.0000       0.180914         4.9229
  19   0.0000       0.215903         5.8750

                 SPIN DOWN ORBITALS
  NO   OCC          E(Eh)            E(eV)
   0   1.0000    -328.797474     -8947.0341
   1   1.0000     -40.823896     -1110.8747
   2   1.0000     -35.623866      -969.3747
   3   1.0000     -35.623866      -969.3747
   4   1.0000     -35.623866      -969.3747
   5   1.0000      -5.013857      -136.4340
   6   1.0000      -3.329685       -90.6053
   7   1.0000      -3.329685       -90.6053
   8   1.0000      -3.329685       -90.6053
   9   1.0000      -0.493725       -13.4349
  10   1.0000      -0.493725       -13.4349
  11   1.0000      -0.493725       -13.4349
  12   1.0000      -0.493725       -13.4349
  13   1.0000      -0.493725       -13.4349
  14   0.0000       0.018818         0.5121
  15   0.0000       0.068152         1.8545
  16   0.0000       0.068152         1.8545
  17   0.0000       0.068152         1.8545
  18   0.0000       0.231416         6.2971

E(0)                                       ...  -1638.923229329
E(0)                                       ...  -1638.923229329
E(CORR)                                    ...     -0.723949293
E(TOT)                                     ...  -1639.647178622
E(CCSD(T))                                 ...  -1639.667354939

MULLIKEN ATOMIC CHARGES AND SPIN DENSITIES
------------------------------------------
   0 Cu:   -0.000000    1.000000
Sum of atomic charges       :   -0.0000000

LOEWDIN ATOMIC CHARGES AND SPIN DENSITIES
-----------------------------------------
   0 Cu:   -0.000000    1.000000

FINAL SINGLE POINT ENERGY     -1639.667354939063

DIPOLE MOMENT
-------------
                                X             Y             Z
Electronic contribution:     -0.00000       0.00000      -0.00000
Nuclear contribution   :      0.00000       0.00000       0.00000
                        -----------------------------------------
Total Dipole Moment    :     -0.00000       0.00000      -0.00000
                        -----------------------------------------
Magnitude (a.u.)       :      0.00000
Magnitude (Debye)      :      0.00000

Rotational constants in cm-1:     0.000000     0.000000     0.000000
Rotational constants in MHz :     0.000000     0.000000     0.000000

                             ****ORCA TERMINATED NORMALLY****
TOTAL RUN TIME: 0 days 0 hours 0 minutes 15 seconds 948 msec
