                         Program Version 4.2.0 -  RELEASE  -
|  1> #
|  2> # 30_Zn CCSD(T)/Def2-TZVPPD
|  3> #
|  4> ! CCSD(T) Def2-TZVPPD tightscf
|  5>
|  6> *xyz 0 1
|  7>  Zn 0.0 0.0 0.0
|  8> *
|  9>
| 10> %maxcore 5000
| 11>
| 12> %pal
| 13> nprocs 24
| 14> end
| 15>
| 16>
| 17>                          ****END OF INPUT****

CARTESIAN COORDINATES (ANGSTROEM)
---------------------------------
  Zn     0.000000    0.000000    0.000000

 Total Charge           Charge          ....    0
 Multiplicity           Mult            ....    1
 Number of Electrons    NEL             ....   30
 Basis Dimension        Dim             ....   67

ORBITAL ENERGIES
----------------

  NO   OCC          E(Eh)            E(eV)
   0   2.0000    -353.305778     -9613.9390
   1   2.0000     -44.364022     -1207.2064
   2   2.0000     -38.927149     -1059.2616
   3   2.0000     -38.927149     -1059.2616
   4   2.0000     -38.927149     -1059.2616
   5   2.0000      -5.639304      -153.4533
   6   2.0000      -3.840979      -104.5184
   7   2.0000      -3.840979      -104.5184
   8   2.0000      -3.840979      -104.5184
   9   2.0000      -0.782705       -21.2985
  10   2.0000      -0.782705       -21.2985
  11   2.0000      -0.782705       -21.2985
  12   2.0000      -0.782705       -21.2985
  13   2.0000      -0.782705       -21.2985
  14   2.0000      -0.292747        -7.9660
  15   0.0000       0.031654         0.8613
  16   0.0000       0.031654         0.8613
  17   0.0000       0.031654         0.8613
  18   0.0000       0.106487         2.8976
  19   0.0000       0.106487         2.8976

E(0)                                       ...  -1777.807075562
E(0)                                       ...  -1777.807075562
E(CORR)                                    ...     -0.743200154
E(TOT)                                     ...  -1778.550275716
E(CCSD(T))                                 ...  -1778.567215983

MULLIKEN ATOMIC CHARGES
-----------------------
   0 Zn:   -0.000000
Sum of atomic charges:   -0.0000000

LOEWDIN ATOMIC CHARGES
----------------------
   0 Zn:   -0.000000

FINAL SINGLE POINT ENERGY     -1778.567215983161

DIPOLE MOMENT
-------------
                                X             Y             Z
Electronic contribution:     -0.00000       0.00000       0.00000
Nuclear contribution   :      0.00000       0.00000       0.00000
                        -----------------------------------------
Total Dipole Moment    :     -0.00000       0.00000       0.00000
                        -----------------------------------------
Magnitude (a.u.)       :      0.00000
Magnitude (Debye)      :      0.00000

Rotational constants in cm-1:     0.000000     0.000000     0.000000
Rotational constants in MHz :     0.000000     0.000000     0.000000

                             ****ORCA TERMINATED NORMALLY****
TOTAL RUN TIME: 0 days 0 hours 0 minutes 7 seconds 844 msec
