                         Program Version 4.2.0 -  RELEASE  -
|  1> #
|  2> # 31_Ga CCSD(T)/Def2-TZVPPD
|  3> #
|  4> ! CCSD(T) Def2-TZVPPD tightscf
|  5>
|  6> *xyz 0 2
|  7>  Ga 0.0 0.0 0.0
|  8> *
|  9>
| 10> %maxcore 5000
| 11>
| 12> %pal
| 13> nprocs 24
| 14> end
| 15>
| 16>
| 17>                          ****END OF INPUT****

CARTESIAN COORDINATES (ANGSTROEM)
---------------------------------
  Ga     0.000000    0.000000    0.000000

 Total Charge           Charge          ....    0
 Multiplicity           Mult            ....    2
 Number of Electrons    NEL             ....   31
 Basis Dimension        Dim             ....   54

ORBITAL ENERGIES
----------------
                 SPIN UP ORBITALS
  NO   OCC          E(Eh)            E(eV)
   0   1.0000    -378.816779    -10308.1286
   1   1.0000     -48.167609     -1310.7073
   2   1.0000     -42.493967     -1156.3196
   3   1.0000     -42.493815     -1156.3155
   4   1.0000     -42.493815     -1156.3155
   5   1.0000      -6.393726      -173.9821
   6   1.0000      -4.482479      -121.9745
   7   1.0000      -4.482479      -121.9745
   8   1.0000      -4.482102      -121.9642
   9   1.0000      -1.195276       -32.5251
  10   1.0000      -1.195276       -32.5251
  11   1.0000      -1.189377       -32.3646
  12   1.0000      -1.189377       -32.3646
  13   1.0000      -1.187562       -32.3152
  14   1.0000      -0.455554       -12.3963
  15   1.0000      -0.214882        -5.8472
  16   0.0000       0.028919         0.7869
  17   0.0000       0.028919         0.7869
  18   0.0000       0.066722         1.8156
  19   0.0000       0.122168         3.3244
  20   0.0000       0.122168         3.3244

                 SPIN DOWN ORBITALS
  NO   OCC          E(Eh)            E(eV)
   0   1.0000    -378.815644    -10308.0977
   1   1.0000     -48.167879     -1310.7146
   2   1.0000     -42.494077     -1156.3226
   3   1.0000     -42.494077     -1156.3226
   4   1.0000     -42.491325     -1156.2477
   5   1.0000      -6.392687      -173.9538
   6   1.0000      -4.483694      -122.0075
   7   1.0000      -4.483694      -122.0075
   8   1.0000      -4.473138      -121.7203
   9   1.0000      -1.196231       -32.5511
  10   1.0000      -1.196231       -32.5511
  11   1.0000      -1.187957       -32.3260
  12   1.0000      -1.187957       -32.3260
  13   1.0000      -1.185381       -32.2559
  14   1.0000      -0.393361       -10.7039
  15   0.0000       0.038999         1.0612
  16   0.0000       0.038999         1.0612
  17   0.0000       0.072733         1.9792
  18   0.0000       0.077015         2.0957
  19   0.0000       0.123885         3.3711

E(0)                                       ...  -1923.223747315
E(0)                                       ...  -1923.223747315
E(CORR)                                    ...     -0.181991742
E(TOT)                                     ...  -1923.405739057
E(CCSD(T))                                 ...  -1923.413151848

MULLIKEN ATOMIC CHARGES AND SPIN DENSITIES
------------------------------------------
   0 Ga:   -0.000000    1.000000
Sum of atomic charges       :   -0.0000000

LOEWDIN ATOMIC CHARGES AND SPIN DENSITIES
-----------------------------------------
   0 Ga:    0.000000    1.000000

FINAL SINGLE POINT ENERGY     -1923.413151847758

DIPOLE MOMENT
-------------
                                X             Y             Z
Electronic contribution:     -0.00000      -0.00000       0.00000
Nuclear contribution   :      0.00000       0.00000       0.00000
                        -----------------------------------------
Total Dipole Moment    :     -0.00000      -0.00000       0.00000
                        -----------------------------------------
Magnitude (a.u.)       :      0.00000
Magnitude (Debye)      :      0.00000

Rotational constants in cm-1:     0.000000     0.000000     0.000000
Rotational constants in MHz :     0.000000     0.000000     0.000000

                             ****ORCA TERMINATED NORMALLY****
TOTAL RUN TIME: 0 days 0 hours 0 minutes 11 seconds 276 msec
