                         Program Version 4.2.0 -  RELEASE  -
|  1> #
|  2> # 33_As CCSD(T)/Def2-TZVPPD
|  3> #
|  4> ! CCSD(T) Def2-TZVPPD tightscf
|  5>
|  6> *xyz 0 4
|  7>  As 0.0 0.0 0.0
|  8> *
|  9>
| 10> %maxcore 5000
| 11>
| 12> %pal
| 13> nprocs 24
| 14> end
| 15>
| 16>
| 17>                          ****END OF INPUT****

CARTESIAN COORDINATES (ANGSTROEM)
---------------------------------
  As     0.000000    0.000000    0.000000

 Total Charge           Charge          ....    0
 Multiplicity           Mult            ....    4
 Number of Electrons    NEL             ....   33
 Basis Dimension        Dim             ....   54

ORBITAL ENERGIES
----------------
                 SPIN UP ORBITALS
  NO   OCC          E(Eh)            E(eV)
   0   1.0000    -432.587951    -11771.3166
   1   1.0000     -56.311054     -1532.3017
   2   1.0000     -50.157415     -1364.8526
   3   1.0000     -50.157415     -1364.8526
   4   1.0000     -50.157415     -1364.8526
   5   1.0000      -8.036169      -218.6753
   6   1.0000      -5.890584      -160.2909
   7   1.0000      -5.890584      -160.2909
   8   1.0000      -5.890584      -160.2909
   9   1.0000      -2.116323       -57.5881
  10   1.0000      -2.116323       -57.5881
  11   1.0000      -2.116323       -57.5881
  12   1.0000      -2.116323       -57.5881
  13   1.0000      -2.116323       -57.5881
  14   1.0000      -0.814625       -22.1671
  15   1.0000      -0.369314       -10.0495
  16   1.0000      -0.369314       -10.0495
  17   1.0000      -0.369314       -10.0495
  18   0.0000       0.102852         2.7987
  19   0.0000       0.171148         4.6572
  20   0.0000       0.171148         4.6572
  21   0.0000       0.171148         4.6572
  22   0.0000       0.171148         4.6572

                 SPIN DOWN ORBITALS
  NO   OCC          E(Eh)            E(eV)
   0   1.0000    -432.580054    -11771.1017
   1   1.0000     -56.308157     -1532.2228
   2   1.0000     -50.149429     -1364.6353
   3   1.0000     -50.149429     -1364.6353
   4   1.0000     -50.149429     -1364.6353
   5   1.0000      -8.021774      -218.2836
   6   1.0000      -5.870261      -159.7379
   7   1.0000      -5.870261      -159.7379
   8   1.0000      -5.870261      -159.7379
   9   1.0000      -2.106536       -57.3218
  10   1.0000      -2.106536       -57.3218
  11   1.0000      -2.106536       -57.3218
  12   1.0000      -2.106536       -57.3218
  13   1.0000      -2.106536       -57.3218
  14   1.0000      -0.554881       -15.0991
  15   0.0000       0.050824         1.3830
  16   0.0000       0.050824         1.3830
  17   0.0000       0.050824         1.3830
  18   0.0000       0.124598         3.3905
  19   0.0000       0.199124         5.4184

E(0)                                       ...  -2234.194503050
E(0)                                       ...  -2234.194503050
E(CORR)                                    ...     -0.202668861
E(TOT)                                     ...  -2234.397171911
E(CCSD(T))                                 ...  -2234.403528367

MULLIKEN ATOMIC CHARGES AND SPIN DENSITIES
------------------------------------------
   0 As:   -0.000000    3.000000
Sum of atomic charges       :   -0.0000000

LOEWDIN ATOMIC CHARGES AND SPIN DENSITIES
-----------------------------------------
   0 As:   -0.000000    3.000000

FINAL SINGLE POINT ENERGY     -2234.403528367153

DIPOLE MOMENT
-------------
                                X             Y             Z
Electronic contribution:      0.00000      -0.00000       0.00000
Nuclear contribution   :      0.00000       0.00000       0.00000
                        -----------------------------------------
Total Dipole Moment    :      0.00000      -0.00000       0.00000
                        -----------------------------------------
Magnitude (a.u.)       :      0.00000
Magnitude (Debye)      :      0.00000

Rotational constants in cm-1:     0.000000     0.000000     0.000000
Rotational constants in MHz :     0.000000     0.000000     0.000000

                             ****ORCA TERMINATED NORMALLY****
TOTAL RUN TIME: 0 days 0 hours 0 minutes 10 seconds 762 msec
