                         Program Version 4.2.0 -  RELEASE  -
|  1> #
|  2> # 34_Se CCSD(T)/Def2-TZVPPD
|  3> #
|  4> ! CCSD(T) Def2-TZVPPD tightscf
|  5>
|  6> *xyz 0 3
|  7>  Se 0.0 0.0 0.0
|  8> *
|  9>
| 10> %maxcore 5000
| 11>
| 12> %pal
| 13> nprocs 24
| 14> end
| 15>
| 16>
| 17>                          ****END OF INPUT****

CARTESIAN COORDINATES (ANGSTROEM)
---------------------------------
  Se     0.000000    0.000000    0.000000

 Total Charge           Charge          ....    0
 Multiplicity           Mult            ....    3
 Number of Electrons    NEL             ....   34
 Basis Dimension        Dim             ....   57

ORBITAL ENERGIES
----------------
                 SPIN UP ORBITALS
  NO   OCC          E(Eh)            E(eV)
   0   1.0000    -460.868248    -12540.8626
   1   1.0000     -60.669893     -1650.9117
   2   1.0000     -54.273858     -1476.8668
   3   1.0000     -54.273858     -1476.8668
   4   1.0000     -54.267650     -1476.6978
   5   1.0000      -8.938404      -243.2263
   6   1.0000      -6.677365      -181.7004
   7   1.0000      -6.677365      -181.7004
   8   1.0000      -6.657238      -181.1526
   9   1.0000      -2.662825       -72.4591
  10   1.0000      -2.662825       -72.4591
  11   1.0000      -2.648675       -72.0741
  12   1.0000      -2.648675       -72.0741
  13   1.0000      -2.644053       -71.9483
  14   1.0000      -0.936284       -25.4776
  15   1.0000      -0.448100       -12.1934
  16   1.0000      -0.448100       -12.1934
  17   1.0000      -0.384491       -10.4625
  18   0.0000       0.069262         1.8847
  19   0.0000       0.069262         1.8847
  20   0.0000       0.075842         2.0638
  21   0.0000       0.095914         2.6100
  22   0.0000       0.167370         4.5544

                 SPIN DOWN ORBITALS
  NO   OCC          E(Eh)            E(eV)
   0   1.0000    -460.861406    -12540.6764
   1   1.0000     -60.666718     -1650.8253
   2   1.0000     -54.265817     -1476.6480
   3   1.0000     -54.263818     -1476.5936
   4   1.0000     -54.263818     -1476.5936
   5   1.0000      -8.925285      -242.8693
   6   1.0000      -6.654422      -181.0760
   7   1.0000      -6.651933      -181.0083
   8   1.0000      -6.651933      -181.0083
   9   1.0000      -2.649619       -72.0998
  10   1.0000      -2.649619       -72.0998
  11   1.0000      -2.641925       -71.8904
  12   1.0000      -2.641925       -71.8904
  13   1.0000      -2.639495       -71.8243
  14   1.0000      -0.741746       -20.1839
  15   1.0000      -0.348422        -9.4810
  16   0.0000      -0.006946        -0.1890
  17   0.0000      -0.006946        -0.1890
  18   0.0000       0.077065         2.0970
  19   0.0000       0.088443         2.4067
  20   0.0000       0.088443         2.4067

E(0)                                       ...  -2399.827602623
E(0)                                       ...  -2399.827602623
E(CORR)                                    ...     -0.225534017
E(TOT)                                     ...  -2400.053136640
E(CCSD(T))                                 ...  -2400.059561033

MULLIKEN ATOMIC CHARGES AND SPIN DENSITIES
------------------------------------------
   0 Se:    0.000000    2.000000
Sum of atomic charges       :    0.0000000

LOEWDIN ATOMIC CHARGES AND SPIN DENSITIES
-----------------------------------------
   0 Se:   -0.000000    2.000000

FINAL SINGLE POINT ENERGY     -2400.059561032755

DIPOLE MOMENT
-------------
                                X             Y             Z
Electronic contribution:      0.00000       0.00000       0.00000
Nuclear contribution   :      0.00000       0.00000       0.00000
                        -----------------------------------------
Total Dipole Moment    :      0.00000       0.00000       0.00000
                        -----------------------------------------
Magnitude (a.u.)       :      0.00000
Magnitude (Debye)      :      0.00000

Rotational constants in cm-1:     0.000000     0.000000     0.000000
Rotational constants in MHz :     0.000000     0.000000     0.000000

                             ****ORCA TERMINATED NORMALLY****
TOTAL RUN TIME: 0 days 0 hours 0 minutes 11 seconds 566 msec
