                         Program Version 4.2.0 -  RELEASE  -
|  1> #
|  2> # 35_Br CCSD(T)/Def2-TZVPPD
|  3> #
|  4> ! CCSD(T) Def2-TZVPPD tightscf
|  5>
|  6> *xyz 0 2
|  7>  Br 0.0 0.0 0.0
|  8> *
|  9>
| 10> %maxcore 5000
| 11>
| 12> %pal
| 13> nprocs 24
| 14> end
| 15>
| 16>
| 17>                          ****END OF INPUT****

CARTESIAN COORDINATES (ANGSTROEM)
---------------------------------
  Br     0.000000    0.000000    0.000000

 Total Charge           Charge          ....    0
 Multiplicity           Mult            ....    2
 Number of Electrons    NEL             ....   35
 Basis Dimension        Dim             ....   57

ORBITAL ENERGIES
----------------
                 SPIN UP ORBITALS
  NO   OCC          E(Eh)            E(eV)
   0   1.0000    -490.060076    -13335.2126
   1   1.0000     -65.200766     -1774.2030
   2   1.0000     -58.561129     -1593.5293
   3   1.0000     -58.553606     -1593.3246
   4   1.0000     -58.553606     -1593.3246
   5   1.0000      -9.875832      -268.7351
   6   1.0000      -7.499717      -204.0777
   7   1.0000      -7.476230      -203.4386
   8   1.0000      -7.476230      -203.4386
   9   1.0000      -3.233365       -87.9843
  10   1.0000      -3.227855       -87.8344
  11   1.0000      -3.227855       -87.8344
  12   1.0000      -3.211552       -87.3908
  13   1.0000      -3.211552       -87.3908
  14   1.0000      -1.047708       -28.5096
  15   1.0000      -0.524026       -14.2595
  16   1.0000      -0.454442       -12.3660
  17   1.0000      -0.454442       -12.3660
  18   0.0000       0.073388         1.9970
  19   0.0000       0.079619         2.1666
  20   0.0000       0.079619         2.1666
  21   0.0000       0.115368         3.1393
  22   0.0000       0.199262         5.4222

                 SPIN DOWN ORBITALS
  NO   OCC          E(Eh)            E(eV)
   0   1.0000    -490.055801    -13335.0963
   1   1.0000     -65.198505     -1774.1415
   2   1.0000     -58.552304     -1593.2892
   3   1.0000     -58.552304     -1593.2892
   4   1.0000     -58.549505     -1593.2130
   5   1.0000      -9.867605      -268.5112
   6   1.0000      -7.474109      -203.3809
   7   1.0000      -7.474109      -203.3809
   8   1.0000      -7.470685      -203.2877
   9   1.0000      -3.222718       -87.6946
  10   1.0000      -3.219729       -87.6133
  11   1.0000      -3.219729       -87.6133
  12   1.0000      -3.211092       -87.3783
  13   1.0000      -3.211092       -87.3783
  14   1.0000      -0.940741       -25.5989
  15   1.0000      -0.434058       -11.8113
  16   1.0000      -0.434058       -11.8113
  17   0.0000      -0.050269        -1.3679
  18   0.0000       0.080154         2.1811
  19   0.0000       0.080154         2.1811
  20   0.0000       0.086310         2.3486
  21   0.0000       0.121840         3.3154

E(0)                                       ...  -2572.398468871
E(0)                                       ...  -2572.398468871
E(CORR)                                    ...     -0.257834355
E(TOT)                                     ...  -2572.656303226
E(CCSD(T))                                 ...  -2572.663176302

MULLIKEN ATOMIC CHARGES AND SPIN DENSITIES
------------------------------------------
   0 Br:   -0.000000    1.000000
Sum of atomic charges       :   -0.0000000

LOEWDIN ATOMIC CHARGES AND SPIN DENSITIES
-----------------------------------------
   0 Br:   -0.000000    1.000000

FINAL SINGLE POINT ENERGY     -2572.663176302353

DIPOLE MOMENT
-------------
                                X             Y             Z
Electronic contribution:     -0.00000       0.00000      -0.00000
Nuclear contribution   :      0.00000       0.00000       0.00000
                        -----------------------------------------
Total Dipole Moment    :     -0.00000       0.00000      -0.00000
                        -----------------------------------------
Magnitude (a.u.)       :      0.00000
Magnitude (Debye)      :      0.00000

Rotational constants in cm-1:     0.000000     0.000000     0.000000
Rotational constants in MHz :     0.000000     0.000000     0.000000

                             ****ORCA TERMINATED NORMALLY****
TOTAL RUN TIME: 0 days 0 hours 0 minutes 21 seconds 547 msec
