                         Program Version 4.2.0 -  RELEASE  -
|  1> #
|  2> # 36_Kr CCSD(T)/Def2-TZVPPD
|  3> #
|  4> ! CCSD(T) Def2-TZVPPD tightscf
|  5>
|  6> *xyz 0 1
|  7>  Kr 0.0 0.0 0.0
|  8> *
|  9>
| 10> %maxcore 5000
| 11>
| 12> %pal
| 13> nprocs 24
| 14> end
| 15>
| 16>
| 17>                          ****END OF INPUT****

CARTESIAN COORDINATES (ANGSTROEM)
---------------------------------
  Kr     0.000000    0.000000    0.000000

 Total Charge           Charge          ....    0
 Multiplicity           Mult            ....    1
 Number of Electrons    NEL             ....   36
 Basis Dimension        Dim             ....   57

ORBITAL ENERGIES
----------------

  NO   OCC          E(Eh)            E(eV)
   0   2.0000    -520.163825    -14154.3773
   1   2.0000     -69.903644     -1902.1748
   2   2.0000     -63.010207     -1714.5949
   3   2.0000     -63.010207     -1714.5949
   4   2.0000     -63.010207     -1714.5949
   5   2.0000     -10.850124      -295.2469
   6   2.0000      -8.332629      -226.7424
   7   2.0000      -8.332629      -226.7424
   8   2.0000      -8.332629      -226.7424
   9   2.0000      -3.825586      -104.0995
  10   2.0000      -3.825586      -104.0995
  11   2.0000      -3.825586      -104.0995
  12   2.0000      -3.825586      -104.0995
  13   2.0000      -3.825586      -104.0995
  14   2.0000      -1.152709       -31.3668
  15   2.0000      -0.524556       -14.2739
  16   2.0000      -0.524556       -14.2739
  17   2.0000      -0.524556       -14.2739
  18   0.0000       0.086638         2.3575
  19   0.0000       0.086638         2.3575
  20   0.0000       0.086638         2.3575
  21   0.0000       0.138938         3.7807
  22   0.0000       0.238818         6.4986

E(0)                                       ...  -2752.003097419
E(0)                                       ...  -2752.003097419
E(CORR)                                    ...     -0.289429850
E(TOT)                                     ...  -2752.292527269
E(CCSD(T))                                 ...  -2752.300062482

MULLIKEN ATOMIC CHARGES
-----------------------
   0 Kr:   -0.000000
Sum of atomic charges:   -0.0000000

LOEWDIN ATOMIC CHARGES
----------------------
   0 Kr:   -0.000000

FINAL SINGLE POINT ENERGY     -2752.300062481535

DIPOLE MOMENT
-------------
                                X             Y             Z
Electronic contribution:     -0.00000       0.00000      -0.00000
Nuclear contribution   :      0.00000       0.00000       0.00000
                        -----------------------------------------
Total Dipole Moment    :     -0.00000       0.00000      -0.00000
                        -----------------------------------------
Magnitude (a.u.)       :      0.00000
Magnitude (Debye)      :      0.00000

Rotational constants in cm-1:     0.000000     0.000000     0.000000
Rotational constants in MHz :     0.000000     0.000000     0.000000

                             ****ORCA TERMINATED NORMALLY****
TOTAL RUN TIME: 0 days 0 hours 0 minutes 6 seconds 472 msec
