                         Program Version 4.2.0 -  RELEASE  -
|  1> # input to generate an atomic fitting density for Sr
|  2> # this file is use internally by ORCA
|  3> #
|  4> # atomic ground state (S=1): 1s2 2s2 2p6 3s2 3p6 4s2 3d10 4p6 5s2
|  5> #
|  6> ! RHF AllowRHF def2-SVP def2/J  NoMulliken NoLoewdin NoMayer NoPrintMOs
|  7>
|  8> %output print[p_atomdensfit] 2 end
|  9>
| 10> %scf
| 11>   guess hcore
| 12>   maxiter 1000
| 13>   maxdisk 500000
| 14>   SCFMode Conventional
| 15>   lshift 1.000000
| 16>   hftyp rohf
| 17>   rohf_case sahf
| 18>   rohf_numop   2
| 19>   rohf_norb[1] 1
| 20>   rohf_nel[1]  2
| 21> end
| 22>
| 23> %basis
| 24>   NewECP 38
| 25>     N_core 28
| 26>     lmax f
| 27>     s 3
| 28>       1       7.4000740000    135.4794300000  2
| 29>       2       3.6063790000     17.5344630000  2
| 30>       3       4.6339750000     15.8059920000  2
| 31>     p 3
| 32>       1       6.4848680000     88.3597090000  2
| 33>       2       3.2880530000     15.3943720000  2
| 34>       3       4.6339750000     15.8059920000  2
| 35>     d 3
| 36>       1       4.6228410000     29.8889870000  2
| 37>       2       2.2469040000      6.6594140000  2
| 38>       3       4.6339750000     15.8059920000  2
| 39>     f 1
| 40>       1       4.6339750000    -15.8059920000  2
| 41>   end
| 42>   NewGTO 38
| 43>     s 2
| 44>      1      10.0000000000     -1.1848404950
| 45>      2       8.5000000000      2.1720592275
| 46>     s 1
| 47>      1       3.0057048856      1.0000000000
| 48>     s 1
| 49>      1       0.6116128765      1.0000000000
| 50>     s 1
| 51>      1       0.2739384122      1.0000000000
| 52>     s 1
| 53>      1       0.0574355646      1.0000000000
| 54>     s 1
| 55>      1       0.0233381987      1.0000000000
| 56>     p 4
| 57>      1       7.5883077869      0.0336810436
| 58>      2       3.6731307392     -0.2049237030
| 59>      3       0.9049661845      0.4913608597
| 60>      4       0.4331025641      0.6201204803
| 61>     p 1
| 62>      1       0.2022216896      1.0000000000
| 63>     p 1
| 64>      1       0.0720000000      1.0000000000
| 65>     p 1
| 66>      1       0.0250000000      1.0000000000
| 67>   end
| 68>   NewAuxGTO 38
| 69>     S 1
| 70>      1 1310.72 1.0
| 71>     S 1
| 72>      1  655.36 1.0
| 73>     S 1
| 74>      1  327.68 1.0
| 75>     S 1
| 76>      1  163.84 1.0
| 77>     S 1
| 78>      1   81.82 1.0
| 79>     S 1
| 80>      1   40.96 1.0
| 81>     S 1
| 82>      1   20.48 1.0
| 83>     S 1
| 84>      1   10.24 1.0
| 85>     S 1
| 86>      1    5.12 1.0
| 87>     S 1
| 88>      1    2.56 1.0
| 89>     S 1
| 90>      1    1.28 1.0
| 91>     S 1
| 92>      1    0.64 1.0
| 93>     S 1
| 94>      1    0.32 1.0
| 95>     S 1
| 96>      1    0.16 1.0
| 97>     S 1
| 98>      1    0.08 1.0
| 99>     S 1
|100>      1    0.04 1.0
|101>     S 1
|102>      1    0.02 1.0
|103>     S 1
|104>      1    0.01 1.0
|105>   end
|106> end
|107>
|108> * xyz 0 1
|109> 38  0.0 0.0 0.0
|110> *
|111>
|112>
|113>                          ****END OF INPUT****

CARTESIAN COORDINATES (ANGSTROEM)
---------------------------------
  Sr     0.000000    0.000000    0.000000

 Total Charge           Charge          ....    0
 Multiplicity           Mult            ....    1
 Number of Electrons    NEL             ....   10
 Basis Dimension        Dim             ....   18

ORBITAL ENERGIES
----------------

  NO   OCC          E(Eh)            E(eV)
   0   2.0000      -1.868194       -50.8361
   1   2.0000      -1.100898       -29.9570
   2   2.0000      -1.100898       -29.9570
   3   2.0000      -1.100898       -29.9570
   4   2.0000      -0.273339        -7.4379
   5   0.0000       0.022781         0.6199
   6   0.0000       0.022781         0.6199
   7   0.0000       0.022781         0.6199
   8   0.0000       0.105010         2.8575
   9   0.0000       0.177893         4.8407

--------------------------
ATOM BASIS FOR ELEMENT Sr
--------------------------
 NewGTO Sr
 S 7
    1         10.000000000000        -0.161873190937
    2          8.500000000000         0.296747249561
    3          3.005704885600        -0.577320016181
    4          0.611612876500         0.870382429220
    5          0.273938412200         0.484937552881
    6          0.057435564600        -0.146454279588
    7          0.023338198700        -0.118568078659
 S 7
    1         10.000000000000         0.008572254966
    2          8.500000000000        -0.015714727490
    3          3.005704885600         0.039884188360
    4          0.611612876500        -0.126332691283
    5          0.273938412200        -0.215315373150
    6          0.057435564600         0.667305456388
    7          0.023338198700         0.496760255754
 S 7
    1         10.000000000000         0.031876470134
    2          8.500000000000        -0.058436204188
    3          3.005704885600         0.125317239516
    4          0.611612876500        -0.135409851759
    5          0.273938412200        -0.660064507718
    6          0.057435564600         2.543020494972
    7          0.023338198700        -2.161381309056
 S 7
    1         10.000000000000        -0.227877962526
    2          8.500000000000         0.417747733419
    3          3.005704885600        -0.832544107507
    4          0.611612876500         3.492343949665
    5          0.273938412200        -3.829767257566
    6          0.057435564600         1.858322215026
    7          0.023338198700        -0.834281977271
 S 7
    1         10.000000000000        -1.871310387337
    2          8.500000000000         3.430501414734
    3          3.005704885600        -2.874986185717
    4          0.611612876500         1.900877541674
    5          0.273938412200        -1.256264306162
    6          0.057435564600         0.420394762900
    7          0.023338198700        -0.186360879125
 S 7
    1         10.000000000000        -2.236092808527
    2          8.500000000000         4.099223514730
    3          3.005704885600        -1.328246255797
    4          0.611612876500         0.623882566234
    5          0.273938412200        -0.399163891269
    6          0.057435564600         0.132974423448
    7          0.023338198700        -0.059100479080
 P 7
    1          7.588307786900        -0.027680492018
    2          3.673130739200         0.168414880267
    3          0.904966184500        -0.403820930146
    4          0.433102564100        -0.509640978140
    5          0.202221689600        -0.214068121638
    6          0.072000000000        -0.015863839093
    7          0.025000000000         0.000253360817
 P 7
    1          7.588307786900        -0.005452885370
    2          3.673130739200         0.033176687616
    3          0.904966184500        -0.079550220450
    4          0.433102564100        -0.100396114056
    5          0.202221689600        -0.028974185485
    6          0.072000000000         0.035391715770
    7          0.025000000000         0.986928707591
 P 7
    1          7.588307786900        -0.007707379273
    2          3.673130739200         0.046893579659
    3          0.904966184500        -0.112440236430
    4          0.433102564100        -0.141904858810
    5          0.202221689600        -0.504017972477
    6          0.072000000000         1.888617400112
    7          0.025000000000        -1.196842976052
 P 7
    1          7.588307786900        -0.051358940119
    2          3.673130739200         0.312480346997
    3          0.904966184500        -0.749257453832
    4          0.433102564100        -0.945598093471
    5          0.202221689600         2.555678525259
    6          0.072000000000        -1.638905375127
    7          0.025000000000         0.545535705540
 end
  // -----------------------------------------------
  // The basis set
  // -----------------------------------------------
  BAS[ATNO] = new BFNGauss[NSH];
  // Basis function   1 L = s
  InitBFNGauss(BAS[ATNO][  0]);
  BAS[ATNO][  0].l  = 0;
  BAS[ATNO][  0].ng = 7;
  BAS[ATNO][  0].a[  0] =        10.000000000000;     BAS[ATNO][  0].d[  0] =        -0.161873190937;
  BAS[ATNO][  0].a[  1] =         8.500000000000;     BAS[ATNO][  0].d[  1] =         0.296747249561;
  BAS[ATNO][  0].a[  2] =         3.005704885600;     BAS[ATNO][  0].d[  2] =        -0.577320016181;
  BAS[ATNO][  0].a[  3] =         0.611612876500;     BAS[ATNO][  0].d[  3] =         0.870382429220;
  BAS[ATNO][  0].a[  4] =         0.273938412200;     BAS[ATNO][  0].d[  4] =         0.484937552881;
  BAS[ATNO][  0].a[  5] =         0.057435564600;     BAS[ATNO][  0].d[  5] =        -0.146454279588;
  BAS[ATNO][  0].a[  6] =         0.023338198700;     BAS[ATNO][  0].d[  6] =        -0.118568078659;

FINAL SINGLE POINT ENERGY       -30.347122817084

DIPOLE MOMENT
-------------
                                X             Y             Z
Electronic contribution:     -0.00000      -0.00000       0.00000
Nuclear contribution   :      0.00000       0.00000       0.00000
                        -----------------------------------------
Total Dipole Moment    :     -0.00000      -0.00000       0.00000
                        -----------------------------------------
Magnitude (a.u.)       :      0.00000
Magnitude (Debye)      :      0.00000

Rotational constants in cm-1:     0.000000     0.000000     0.000000
Rotational constants in MHz :     0.000000     0.000000     0.000000

                             ****ORCA TERMINATED NORMALLY****
TOTAL RUN TIME: 0 days 0 hours 0 minutes 0 seconds 998 msec
