                         Program Version 4.2.0 -  RELEASE  -
|  1> # input to generate an atomic fitting density for  Y
|  2> # this file is use internally by ORCA
|  3> #
|  4> # atomic ground state (S=2): 1s2 2s2 2p6 3s2 3p6 4s2 3d10 4p6 4d1 5s2
|  5> #
|  6> ! RHF AllowRHF def2-SVP def2/J  NoMulliken NoLoewdin NoMayer NoPrintMOs
|  7>
|  8> %output print[p_atomdensfit] 2 end
|  9>
| 10> %scf
| 11>   guess hcore
| 12>   maxiter 1000
| 13>   maxdisk 500000
| 14>   SCFMode Conventional
| 15>   lshift 0.600000
| 16>   hftyp rohf
| 17>   rohf_case sahf
| 18>   rohf_numop   3
| 19>   rohf_norb[1] 5,1
| 20>   rohf_nel[1]  1,2
| 21> end
| 22>
| 23> %basis
| 24>   NewECP 39
| 25>     N_core 28
| 26>     lmax f
| 27>     s 4
| 28>       1       7.4880494000    135.1538441000  2
| 29>       2       3.7440247000     15.5524413000  2
| 30>       3       6.5842120000     19.1221981000  2
| 31>       4       3.2921060000      2.4363754000  2
| 32>     p 4
| 33>       1       6.4453772000     87.7849917000  2
| 34>       2       3.2226886000     11.5640660000  2
| 35>       3       6.5842120000     19.1221981000  2
| 36>       4       3.2921060000      2.4363754000  2
| 37>     d 4
| 38>       1       4.6584472000     29.7010007000  2
| 39>       2       2.3292236000      5.5399685000  2
| 40>       3       6.5842120000     19.1221981000  2
| 41>       4       3.2921060000      2.4363754000  2
| 42>     f 2
| 43>       1       6.5842120000    -19.1221981000  2
| 44>       2       3.2921060000     -2.4363754000  2
| 45>   end
| 46>   NewGTO 39
| 47>     s 2
| 48>      1      10.0000000000     -1.0384252283
| 49>      2       8.5000000000      2.0279787226
| 50>     s 1
| 51>      1       3.3653905454      1.0000000000
| 52>     s 1
| 53>      1       0.6886067939      1.0000000000
| 54>     s 1
| 55>      1       0.3119150294      1.0000000000
| 56>     s 1
| 57>      1       0.0703260426      1.0000000000
| 58>     s 1
| 59>      1       0.0277338593      1.0000000000
| 60>     p 4
| 61>      1       8.0554093616      0.0370452674
| 62>      2       4.0163458751     -0.2123617809
| 63>      3       1.0232915404      0.4980977153
| 64>      4       0.4984356164      0.6166781935
| 65>     p 1
| 66>      1       0.2330766184      1.0000000000
| 67>     p 1
| 68>      1       0.0800000000      1.0000000000
| 69>     p 1
| 70>      1       0.0270000000      1.0000000000
| 71>     d 3
| 72>      1       3.9030833060     -0.0177028307
| 73>      2       1.1363234302      0.3457949947
| 74>      3       0.4561704388      0.7317964494
| 75>     d 1
| 76>      1       0.1747095075      1.0000000000
| 77>     d 1
| 78>      1       0.0619787966      1.0000000000
| 79>   end
| 80>   NewAuxGTO 39
| 81>     S 1
| 82>      1 1310.72 1.0
| 83>     S 1
| 84>      1  655.36 1.0
| 85>     S 1
| 86>      1  327.68 1.0
| 87>     S 1
| 88>      1  163.84 1.0
| 89>     S 1
| 90>      1   81.82 1.0
| 91>     S 1
| 92>      1   40.96 1.0
| 93>     S 1
| 94>      1   20.48 1.0
| 95>     S 1
| 96>      1   10.24 1.0
| 97>     S 1
| 98>      1    5.12 1.0
| 99>     S 1
|100>      1    2.56 1.0
|101>     S 1
|102>      1    1.28 1.0
|103>     S 1
|104>      1    0.64 1.0
|105>     S 1
|106>      1    0.32 1.0
|107>     S 1
|108>      1    0.16 1.0
|109>     S 1
|110>      1    0.08 1.0
|111>     S 1
|112>      1    0.04 1.0
|113>     S 1
|114>      1    0.02 1.0
|115>     S 1
|116>      1    0.01 1.0
|117>   end
|118> end
|119>
|120> * xyz 0 2
|121> 39  0.0 0.0 0.0
|122> *
|123>
|124>
|125>                          ****END OF INPUT****

CARTESIAN COORDINATES (ANGSTROEM)
---------------------------------
   Y     0.000000    0.000000    0.000000

 Total Charge           Charge          ....    0
 Multiplicity           Mult            ....    2
 Number of Electrons    NEL             ....   11
 Basis Dimension        Dim             ....   33

ORBITAL ENERGIES
----------------

  NO   OCC          E(Eh)            E(eV)
   0   2.0000      -2.168885       -59.0184
   1   2.0000      -1.243070       -33.8257
   2   2.0000      -1.227943       -33.4140
   3   2.0000      -1.225343       -33.3433
   4   0.2000      -0.201475        -5.4824
   5   0.2000      -0.118053        -3.2124
   6   0.2000      -0.115309        -3.1377
   7   0.2000      -0.112813        -3.0698
   8   0.2000      -0.090431        -2.4607
   9   2.0000      -0.120450        -3.2776
  10   0.0000       0.035982         0.9791
  11   0.0000       0.043802         1.1919
  12   0.0000       0.109386         2.9765
  13   0.0000       0.151890         4.1331
  14   0.0000       0.204449         5.5633

CleanUpVectors: The p-vectors have cracked symmetry
CleanUpVectors: The p-vectors have cracked symmetry
CleanUpVectors: The p-vectors have cracked symmetry
CleanUpVectors: The p-vectors have cracked symmetry
CleanUpVectors: The d-vectors have cracked symmetry at i=6
CleanUpVectors: The d-vectors have cracked symmetry at i=7
CleanUpVectors: The d-vectors have cracked symmetry at i=8
CleanUpVectors: The d-vectors have cracked symmetry at i=9
CleanUpVectors: The p-vectors have cracked symmetry
CleanUpVectors: The p-vectors have cracked symmetry
CleanUpVectors: The d-vectors have cracked symmetry at i=12
CleanUpVectors: The p-vectors have cracked symmetry
CleanUpVectors: The p-vectors have cracked symmetry
CleanUpVectors: The p-vectors have cracked symmetry
CleanUpVectors: The d-vectors have cracked symmetry at i=17
CleanUpVectors: The d-vectors have cracked symmetry at i=18
CleanUpVectors: The d-vectors have cracked symmetry at i=19
CleanUpVectors: The d-vectors have cracked symmetry at i=20
CleanUpVectors: The d-vectors have cracked symmetry at i=21
CleanUpVectors: The d-vectors have cracked symmetry at i=22
CleanUpVectors: The d-vectors have cracked symmetry at i=23
CleanUpVectors: The d-vectors have cracked symmetry at i=24
CleanUpVectors: The d-vectors have cracked symmetry at i=25
CleanUpVectors: The d-vectors have cracked symmetry at i=26
CleanUpVectors: The p-vectors have cracked symmetry
CleanUpVectors: The p-vectors have cracked symmetry
CleanUpVectors: The p-vectors have cracked symmetry
--------------------------
ATOM BASIS FOR ELEMENT  Y
--------------------------
 NewGTO  Y
 S 7
    1         10.000000000000        -0.166637925515
    2          8.500000000000         0.325433317791
    3          3.365390545400        -0.589651106696
    4          0.688606793900         0.819479417313
    5          0.311915029400         0.423766576822
    6          0.070326042600         0.017461980550
    7          0.027733859300        -0.002958733192
 P 19
    1          8.055409361600        -0.023195545361
    2          4.016345875100         0.132968329496
    3          1.023291540400        -0.311879194309
    4          0.498435616400        -0.386127244171
    5          8.055409361600         0.018251319935
    6          4.016345875100        -0.104625585863
    7          1.023291540400         0.245400867610
    8          0.498435616400         0.303822641768
    9          8.055409361600        -0.006646044071
   10          4.016345875100         0.038098409158
   11          1.023291540400        -0.089360385272
   12          0.498435616400        -0.110634117097
   13          0.233076618400        -0.170180565704
   14          0.233076618400         0.133905881624
   15          0.233076618400        -0.048760549580
   16          0.080000000000        -0.009001811803
   17          0.080000000000         0.007083038776
   18          0.080000000000        -0.002579221011
   19          0.027000000000         0.000481364871
 S 7
    1         10.000000000000        -0.050662182583
    2          8.500000000000         0.098940034889
    3          3.365390545400        -0.190240052275
    4          0.688606793900         0.341919572387
    5          0.311915029400         0.326619194193
    6          0.070326042600        -0.644106891155
    7          0.027733859300        -0.555088267393
 P 19
    1          8.055409361600        -0.000003832723
    2          4.016345875100         0.000021971062
    3          1.023291540400        -0.000051533453
    4          0.498435616400        -0.000063801853
    5          8.055409361600        -0.002534690743
    6          4.016345875100         0.014530100009
    7          1.023291540400        -0.034080565659
    8          0.498435616400        -0.042194013380
    9          8.055409361600        -0.006947373367
   10          4.016345875100         0.039825777604
   11          1.023291540400        -0.093411953651
   12          0.498435616400        -0.115650228980
   13          0.233076618400        -0.000040726898
   14          0.233076618400        -0.026933877746
   15          0.233076618400        -0.073823485350
   16          0.080000000000         0.000148447133
   17          0.080000000000         0.098172390449
   18          0.080000000000         0.269082235259
   19          0.027000000000         0.000421682407
 S 7
    1         10.000000000000        -1.904072526635
    2          8.500000000000         3.718533087476
    3          3.365390545400        -3.180910246157
    4          0.688606793900         2.044986687702
    5          0.311915029400        -1.378639283983
    6          0.070326042600         0.461865383965
    7          0.027733859300        -0.193478378223
 S 7
    1         10.000000000000        -2.178772341990
    2          8.500000000000         4.255004434145
    3          3.365390545400        -1.576836840715
    4          0.688606793900         0.693569142078
    5          0.311915029400        -0.450212641169
    6          0.070326042600         0.149804863210
    7          0.027733859300        -0.062930687115
 D 19
    1          3.903083306000        -0.006487276503
    2          1.136323430200         0.126718025049
    3          0.456170438800         0.268169875873
    4          3.903083306000        -0.001254087261
    5          1.136323430200         0.024496483359
    6          0.456170438800         0.051841234892
    7          3.903083306000         0.000461675744
    8          1.136323430200        -0.009018058425
    9          0.456170438800        -0.019084669347
   10          3.903083306000         0.002865906853
   11          1.136323430200        -0.055980665570
   12          0.456170438800        -0.118470344936
   13          3.903083306000        -0.002411399097
   14          1.136323430200         0.047102621735
   15          0.456170438800         0.099681984620
   16          0.174709507500         0.327403547790
   17          0.174709507500         0.063291986732
   18          0.174709507500        -0.023300113155
   19          0.174709507500        -0.144638211557
 P 19
    1          8.055409361600        -0.003171068285
    2          4.016345875100         0.018178130587
    3          1.023291540400        -0.042637075632
    4          0.498435616400        -0.052787543426
    5          8.055409361600        -0.003556914836
    6          4.016345875100         0.020389993704
    7          1.023291540400        -0.047825033469
    8          0.498435616400        -0.059210581253
    9          8.055409361600         0.001299459876
   10          4.016345875100        -0.007449146216
   11          1.023291540400         0.017472083232
   12          0.498435616400         0.021631604388
   13          0.233076618400         0.007236786858
   14          0.233076618400         0.008117338456
   15          0.233076618400        -0.002965535052
   16          0.080000000000        -0.079650095092
   17          0.080000000000        -0.089341691641
   18          0.080000000000         0.032639506116
   19          0.027000000000         0.695157566065
 P 19
    1          8.055409361600        -0.000003679348
    2          4.016345875100         0.000021091840
    3          1.023291540400        -0.000049471223
    4          0.498435616400        -0.000061248674
    5          8.055409361600        -0.002433258838
    6          4.016345875100         0.013948642204
    7          1.023291540400        -0.032716747730
    8          0.498435616400        -0.040505515821
    9          8.055409361600        -0.006669357080
   10          4.016345875100         0.038232050852
   11          1.023291540400        -0.089673843853
   12          0.498435616400        -0.111022199726
   13          0.233076618400        -0.000250983011
   14          0.233076618400        -0.165982311517
   15          0.233076618400        -0.454943505008
   16          0.080000000000         0.000936751174
   17          0.080000000000         0.619500598798
   18          0.080000000000         1.697998848166
   19          0.027000000000        -0.000663808146
 D 19
    1          3.903083306000        -0.004446730802
    2          1.136323430200         0.086859400060
    3          0.456170438800         0.183818162596
    4          3.903083306000        -0.000859619356
    5          1.136323430200         0.016791216936
    6          0.456170438800         0.035534791201
    7          3.903083306000         0.000316457569
    8          1.136323430200        -0.006181465851
    9          0.456170438800        -0.013081666395
   10          3.903083306000         0.001964447834
   11          1.136323430200        -0.038372181264
   12          0.456170438800        -0.081205993247
   13          3.903083306000        -0.001652903593
   14          1.136323430200         0.032286688999
   15          0.456170438800         0.068327433117
   16          0.174709507500         0.614973814750
   17          0.174709507500         0.118883606450
   18          0.174709507500        -0.043765437390
   19          0.174709507500        -0.271679135195
 D 19
    1          3.903083306000        -0.017903746446
    2          1.136323430200         0.349719545543
    3          0.456170438800         0.740101868555
    4          3.903083306000        -0.003461061096
    5          1.136323430200         0.067606001751
    6          0.456170438800         0.143072724584
    7          3.903083306000         0.001274144158
    8          1.136323430200        -0.024888261091
    9          0.456170438800        -0.052670343346
   10          3.903083306000         0.007909400748
   11          1.136323430200        -0.154496827997
   12          0.456170438800        -0.326957393555
   13          3.903083306000        -0.006655038982
   14          1.136323430200         0.129994982631
   15          0.456170438800         0.275104811194
   16          0.174709507500        -1.225880182730
   17          0.174709507500        -0.236980914669
   18          0.174709507500         0.087241409418
   19          0.174709507500         0.541561380111
 P 19
    1          8.055409361600        -0.036360842026
    2          4.016345875100         0.208438316405
    3          1.023291540400        -0.488895170977
    4          0.498435616400        -0.605284829840
    5          8.055409361600        -0.040785125646
    6          4.016345875100         0.233800496644
    7          1.023291540400        -0.548382541909
    8          0.498435616400        -0.678934162723
    9          8.055409361600         0.014900169602
   10          4.016345875100        -0.085415135980
   11          1.023291540400         0.200342471717
   12          0.498435616400         0.248037342362
   13          0.233076618400         1.590117819337
   14          0.233076618400         1.783598823365
   15          0.233076618400        -0.651608265244
   16          0.080000000000        -0.972266835311
   17          0.080000000000        -1.090569492631
   18          0.080000000000         0.398421486891
   19          0.027000000000         0.320765670072
 end
  // -----------------------------------------------
  // The basis set
  // -----------------------------------------------
  BAS[ATNO] = new BFNGauss[NSH];
  // Basis function   1 L = s
  InitBFNGauss(BAS[ATNO][  0]);
  BAS[ATNO][  0].l  = 0;
  BAS[ATNO][  0].ng = 7;
  BAS[ATNO][  0].a[  0] =        10.000000000000;     BAS[ATNO][  0].d[  0] =        -0.166637925515;
  BAS[ATNO][  0].a[  1] =         8.500000000000;     BAS[ATNO][  0].d[  1] =         0.325433317791;
  BAS[ATNO][  0].a[  2] =         3.365390545400;     BAS[ATNO][  0].d[  2] =        -0.589651106696;
  BAS[ATNO][  0].a[  3] =         0.688606793900;     BAS[ATNO][  0].d[  3] =         0.819479417313;
  BAS[ATNO][  0].a[  4] =         0.311915029400;     BAS[ATNO][  0].d[  4] =         0.423766576822;
  BAS[ATNO][  0].a[  5] =         0.070326042600;     BAS[ATNO][  0].d[  5] =         0.017461980550;
  BAS[ATNO][  0].a[  6] =         0.027733859300;     BAS[ATNO][  0].d[  6] =        -0.002958733192;

FINAL SINGLE POINT ENERGY       -37.650391113953

DIPOLE MOMENT
-------------
                                X             Y             Z
Electronic contribution:     -0.00000       0.00000       0.00000
Nuclear contribution   :      0.00000       0.00000       0.00000
                        -----------------------------------------
Total Dipole Moment    :     -0.00000       0.00000       0.00000
                        -----------------------------------------
Magnitude (a.u.)       :      0.00000
Magnitude (Debye)      :      0.00000

Rotational constants in cm-1:     0.000000     0.000000     0.000000
Rotational constants in MHz :     0.000000     0.000000     0.000000

                             ****ORCA TERMINATED NORMALLY****
TOTAL RUN TIME: 0 days 0 hours 0 minutes 7 seconds 482 msec
