                         Program Version 4.2.0 -  RELEASE  -
|  1> #
|  2> # 39_Y CCSD(T)/Def2-TZVPPD
|  3> #
|  4> ! CCSD(T) Def2-TZVPPD tightscf
|  5>
|  6> *xyz 0 2
|  7>  Y 0.0 0.0 0.0
|  8> *
|  9>
| 10> %maxcore 5000
| 11>
| 12> %pal
| 13> nprocs 24
| 14> end
| 15>
| 16>
| 17>                          ****END OF INPUT****

CARTESIAN COORDINATES (ANGSTROEM)
---------------------------------
   Y     0.000000    0.000000    0.000000

 Total Charge           Charge          ....    0
 Multiplicity           Mult            ....    2
 Number of Electrons    NEL             ....   11
 Basis Dimension        Dim             ....   56

ORBITAL ENERGIES
----------------
                 SPIN UP ORBITALS
  NO   OCC          E(Eh)            E(eV)
   0   1.0000      -2.269792       -61.7642
   1   1.0000      -1.332311       -36.2540
   2   1.0000      -1.332311       -36.2540
   3   1.0000      -1.309649       -35.6374
   4   1.0000      -0.237020        -6.4496
   5   1.0000      -0.210840        -5.7372
   6   0.0000       0.020413         0.5555
   7   0.0000       0.020413         0.5555
   8   0.0000       0.028878         0.7858
   9   0.0000       0.083122         2.2619
  10   0.0000       0.087178         2.3722

                 SPIN DOWN ORBITALS
  NO   OCC          E(Eh)            E(eV)
   0   1.0000      -2.241875       -61.0045
   1   1.0000      -1.305807       -35.5328
   2   1.0000      -1.271926       -34.6109
   3   1.0000      -1.271926       -34.6109
   4   1.0000      -0.195926        -5.3314
   5   0.0000       0.016945         0.4611
   6   0.0000       0.033051         0.8994
   7   0.0000       0.033051         0.8994
   8   0.0000       0.084759         2.3064
   9   0.0000       0.094383         2.5683

E(0)                                       ...    -37.819949577
E(0)                                       ...    -37.819949577
E(CORR)                                    ...     -0.227424773
E(TOT)                                     ...    -38.047374351
E(CCSD(T))                                 ...    -38.055288455

MULLIKEN ATOMIC CHARGES AND SPIN DENSITIES
------------------------------------------
   0  Y:   -0.000000    1.000000
Sum of atomic charges       :   -0.0000000

LOEWDIN ATOMIC CHARGES AND SPIN DENSITIES
-----------------------------------------
   0  Y:   -0.000000    1.000000

FINAL SINGLE POINT ENERGY       -38.055288455077

DIPOLE MOMENT
-------------
                                X             Y             Z
Electronic contribution:      0.00000      -0.00000       0.00000
Nuclear contribution   :      0.00000       0.00000       0.00000
                        -----------------------------------------
Total Dipole Moment    :      0.00000      -0.00000       0.00000
                        -----------------------------------------
Magnitude (a.u.)       :      0.00000
Magnitude (Debye)      :      0.00000

Rotational constants in cm-1:     0.000000     0.000000     0.000000
Rotational constants in MHz :     0.000000     0.000000     0.000000

                             ****ORCA TERMINATED NORMALLY****
TOTAL RUN TIME: 0 days 0 hours 0 minutes 21 seconds 872 msec
