                         Program Version 4.2.0 -  RELEASE  -
|  1> #
|  2> # 42_Mo CCSD(T)/Def2-TZVPPD
|  3> #
|  4> ! CCSD(T) Def2-TZVPPD tightscf
|  5>
|  6> *xyz 0 7
|  7>  Mo 0.0 0.0 0.0
|  8> *
|  9>
| 10> %maxcore 5000
| 11>
| 12> %pal
| 13> nprocs 24
| 14> end
| 15>
| 16>
| 17>                          ****END OF INPUT****

CARTESIAN COORDINATES (ANGSTROEM)
---------------------------------
  Mo     0.000000    0.000000    0.000000

 Total Charge           Charge          ....    0
 Multiplicity           Mult            ....    7
 Number of Electrons    NEL             ....   14
 Basis Dimension        Dim             ....   56

ORBITAL ENERGIES
----------------
                 SPIN UP ORBITALS
  NO   OCC          E(Eh)            E(eV)
   0   1.0000      -3.047891       -82.9373
   1   1.0000      -1.936022       -52.6818
   2   1.0000      -1.936022       -52.6818
   3   1.0000      -1.936022       -52.6818
   4   1.0000      -0.341613        -9.2958
   5   1.0000      -0.341613        -9.2958
   6   1.0000      -0.341613        -9.2958
   7   1.0000      -0.341613        -9.2958
   8   1.0000      -0.341613        -9.2958
   9   1.0000      -0.238238        -6.4828
  10   0.0000       0.030962         0.8425
  11   0.0000       0.030962         0.8425
  12   0.0000       0.030962         0.8425
  13   0.0000       0.166557         4.5322
  14   0.0000       0.225124         6.1259

                 SPIN DOWN ORBITALS
  NO   OCC          E(Eh)            E(eV)
   0   1.0000      -2.812334       -76.5275
   1   1.0000      -1.625011       -44.2188
   2   1.0000      -1.625011       -44.2188
   3   1.0000      -1.625011       -44.2188
   4   0.0000       0.033288         0.9058
   5   0.0000       0.070568         1.9203
   6   0.0000       0.070568         1.9203
   7   0.0000       0.070568         1.9203
   8   0.0000       0.216428         5.8893

E(0)                                       ...    -67.566616393
E(0)                                       ...    -67.566616393
E(CORR)                                    ...     -0.356641006
E(TOT)                                     ...    -67.923257400
E(CCSD(T))                                 ...    -67.933506863

MULLIKEN ATOMIC CHARGES AND SPIN DENSITIES
------------------------------------------
   0 Mo:   -0.000000    6.000000
Sum of atomic charges       :   -0.0000000

LOEWDIN ATOMIC CHARGES AND SPIN DENSITIES
-----------------------------------------
   0 Mo:   -0.000000    6.000000

FINAL SINGLE POINT ENERGY       -67.933506862770

DIPOLE MOMENT
-------------
                                X             Y             Z
Electronic contribution:     -0.00000       0.00000       0.00000
Nuclear contribution   :      0.00000       0.00000       0.00000
                        -----------------------------------------
Total Dipole Moment    :     -0.00000       0.00000       0.00000
                        -----------------------------------------
Magnitude (a.u.)       :      0.00000
Magnitude (Debye)      :      0.00000

Rotational constants in cm-1:     0.000000     0.000000     0.000000
Rotational constants in MHz :     0.000000     0.000000     0.000000

                             ****ORCA TERMINATED NORMALLY****
TOTAL RUN TIME: 0 days 0 hours 0 minutes 13 seconds 695 msec
