                         Program Version 4.2.0 -  RELEASE  -
|  1> #
|  2> # 43_Tc CCSD(T)/Def2-TZVPPD
|  3> #
|  4> ! CCSD(T) Def2-TZVPPD tightscf
|  5>
|  6> *xyz 0 6
|  7>  Tc 0.0 0.0 0.0
|  8> *
|  9>
| 10> %maxcore 5000
| 11>
| 12> %pal
| 13> nprocs 24
| 14> end
| 15>
| 16>
| 17>                          ****END OF INPUT****

CARTESIAN COORDINATES (ANGSTROEM)
---------------------------------
  Tc     0.000000    0.000000    0.000000

 Total Charge           Charge          ....    0
 Multiplicity           Mult            ....    6
 Number of Electrons    NEL             ....   15
 Basis Dimension        Dim             ....   56

ORBITAL ENERGIES
----------------
                 SPIN UP ORBITALS
  NO   OCC          E(Eh)            E(eV)
   0   1.0000      -3.312783       -90.1454
   1   1.0000      -2.160938       -58.8021
   2   1.0000      -2.110654       -57.4338
   3   1.0000      -2.110651       -57.4337
   4   1.0000      -0.403417       -10.9775
   5   1.0000      -0.397505       -10.8167
   6   1.0000      -0.397504       -10.8166
   7   1.0000      -0.380234       -10.3467
   8   1.0000      -0.343997        -9.3606
   9   1.0000      -0.237235        -6.4555
  10   0.0000       0.030725         0.8361
  11   0.0000       0.037968         1.0332
  12   0.0000       0.037968         1.0332
  13   0.0000       0.178904         4.8682
  14   0.0000       0.239338         6.5127

                 SPIN DOWN ORBITALS
  NO   OCC          E(Eh)            E(eV)
   0   1.0000      -3.095912       -84.2441
   1   1.0000      -1.861999       -50.6676
   2   1.0000      -1.861996       -50.6675
   3   1.0000      -1.823000       -49.6063
   4   1.0000      -0.248180        -6.7533
   5   0.0000       0.028428         0.7736
   6   0.0000       0.071512         1.9459
   7   0.0000       0.073550         2.0014
   8   0.0000       0.073550         2.0014
   9   0.0000       0.192733         5.2445

E(0)                                       ...    -80.084114776
E(0)                                       ...    -80.084114776
E(CORR)                                    ...     -0.419504156
E(TOT)                                     ...    -80.503618932
E(CCSD(T))                                 ...    -80.516618951

MULLIKEN ATOMIC CHARGES AND SPIN DENSITIES
------------------------------------------
   0 Tc:   -0.000000    5.000000
Sum of atomic charges       :   -0.0000000

LOEWDIN ATOMIC CHARGES AND SPIN DENSITIES
-----------------------------------------
   0 Tc:   -0.000000    5.000000

FINAL SINGLE POINT ENERGY       -80.516618950894

DIPOLE MOMENT
-------------
                                X             Y             Z
Electronic contribution:     -0.00000       0.00000       0.00000
Nuclear contribution   :      0.00000       0.00000       0.00000
                        -----------------------------------------
Total Dipole Moment    :     -0.00000       0.00000       0.00000
                        -----------------------------------------
Magnitude (a.u.)       :      0.00000
Magnitude (Debye)      :      0.00000

Rotational constants in cm-1:     0.000000     0.000000     0.000000
Rotational constants in MHz :     0.000000     0.000000     0.000000

                             ****ORCA TERMINATED NORMALLY****
TOTAL RUN TIME: 0 days 0 hours 0 minutes 14 seconds 177 msec
