                         Program Version 4.2.0 -  RELEASE  -
|  1> #
|  2> # 44_Ru CCSD(T)/Def2-TZVPPD
|  3> #
|  4> ! CCSD(T) Def2-TZVPPD tightscf veryslowconv kdiis
|  5>
|  6> *xyz 0 5
|  7>  Ru 0.0 0.0 0.0
|  8> *
|  9>
| 10> %maxcore 5000
| 11>
| 12> %pal
| 13> nprocs 24
| 14> end
| 15>
| 16>
| 17>                          ****END OF INPUT****

CARTESIAN COORDINATES (ANGSTROEM)
---------------------------------
  Ru     0.000000    0.000000    0.000000

 Total Charge           Charge          ....    0
 Multiplicity           Mult            ....    5
 Number of Electrons    NEL             ....   16
 Basis Dimension        Dim             ....   56

ORBITAL ENERGIES
----------------
                 SPIN UP ORBITALS
  NO   OCC          E(Eh)            E(eV)
   0   1.0000      -3.579366       -97.3995
   1   1.0000      -2.316089       -63.0240
   2   1.0000      -2.316089       -63.0240
   3   1.0000      -2.260771       -61.5187
   4   1.0000      -0.450142       -12.2490
   5   1.0000      -0.450142       -12.2490
   6   1.0000      -0.425684       -11.5834
   7   1.0000      -0.392239       -10.6734
   8   1.0000      -0.392238       -10.6734
   9   1.0000      -0.237255        -6.4560
  10   0.0000       0.037740         1.0269
  11   0.0000       0.037740         1.0269
  12   0.0000       0.044251         1.2041
  13   0.0000       0.197693         5.3795
  14   0.0000       0.260581         7.0908

                 SPIN DOWN ORBITALS
  NO   OCC          E(Eh)            E(eV)
   0   1.0000      -3.397011       -92.4374
   1   1.0000      -2.098694       -57.1084
   2   1.0000      -2.054460       -55.9047
   3   1.0000      -2.054460       -55.9047
   4   1.0000      -0.317688        -8.6447
   5   1.0000      -0.317688        -8.6447
   6   0.0000       0.025270         0.6876
   7   0.0000       0.074792         2.0352
   8   0.0000       0.074792         2.0352
   9   0.0000       0.076936         2.0935
  10   0.0000       0.176470         4.8020

E(0)                                       ...    -94.112387255
E(0)                                       ...    -94.112387255
E(CORR)                                    ...     -0.476990258
E(TOT)                                     ...    -94.589377514
E(CCSD(T))                                 ...    -94.604917281

MULLIKEN ATOMIC CHARGES AND SPIN DENSITIES
------------------------------------------
   0 Ru:   -0.000000    4.000000
Sum of atomic charges       :   -0.0000000

LOEWDIN ATOMIC CHARGES AND SPIN DENSITIES
-----------------------------------------
   0 Ru:    0.000000    4.000000

FINAL SINGLE POINT ENERGY       -94.604917280846

DIPOLE MOMENT
-------------
                                X             Y             Z
Electronic contribution:     -0.00000       0.00000       0.00000
Nuclear contribution   :      0.00000       0.00000       0.00000
                        -----------------------------------------
Total Dipole Moment    :     -0.00000       0.00000       0.00000
                        -----------------------------------------
Magnitude (a.u.)       :      0.00000
Magnitude (Debye)      :      0.00000

Rotational constants in cm-1:     0.000000     0.000000     0.000000
Rotational constants in MHz :     0.000000     0.000000     0.000000

                             ****ORCA TERMINATED NORMALLY****
TOTAL RUN TIME: 0 days 0 hours 0 minutes 10 seconds 460 msec
