                         Program Version 4.2.0 -  RELEASE  -
|  1> #
|  2> # 45_Rh CCSD(T)/Def2-TZVPPD
|  3> #
|  4> ! CCSD(T) Def2-TZVPPD tightscf
|  5>
|  6> *xyz 0 4
|  7>  Rh 0.0 0.0 0.0
|  8> *
|  9>
| 10> %maxcore 5000
| 11>
| 12> %pal
| 13> nprocs 24
| 14> end
| 15>
| 16>
| 17>                          ****END OF INPUT****

CARTESIAN COORDINATES (ANGSTROEM)
---------------------------------
  Rh     0.000000    0.000000    0.000000

 Total Charge           Charge          ....    0
 Multiplicity           Mult            ....    4
 Number of Electrons    NEL             ....   17
 Basis Dimension        Dim             ....   56

ORBITAL ENERGIES
----------------
                 SPIN UP ORBITALS
  NO   OCC          E(Eh)            E(eV)
   0   1.0000      -3.826735      -104.1307
   1   1.0000      -2.452164       -66.7268
   2   1.0000      -2.452164       -66.7268
   3   1.0000      -2.452164       -66.7268
   4   1.0000      -0.481193       -13.0939
   5   1.0000      -0.481193       -13.0939
   6   1.0000      -0.438536       -11.9332
   7   1.0000      -0.438536       -11.9332
   8   1.0000      -0.438536       -11.9332
   9   1.0000      -0.237284        -6.4568
  10   0.0000       0.041512         1.1296
  11   0.0000       0.041512         1.1296
  12   0.0000       0.041512         1.1296
  13   0.0000       0.176785         4.8106
  14   0.0000       0.265858         7.2344

                 SPIN DOWN ORBITALS
  NO   OCC          E(Eh)            E(eV)
   0   1.0000      -3.692474      -100.4773
   1   1.0000      -2.288805       -62.2816
   2   1.0000      -2.288805       -62.2816
   3   1.0000      -2.288805       -62.2816
   4   1.0000      -0.390028       -10.6132
   5   1.0000      -0.390028       -10.6132
   6   1.0000      -0.390028       -10.6132
   7   0.0000       0.019319         0.5257
   8   0.0000       0.074692         2.0325
   9   0.0000       0.074692         2.0325
  10   0.0000       0.074692         2.0325
  11   0.0000       0.172021         4.6809

E(0)                                       ...   -109.745326887
E(0)                                       ...   -109.745326887
E(CORR)                                    ...     -0.519615019
E(TOT)                                     ...   -110.264941906
E(CCSD(T))                                 ...   -110.280486407

MULLIKEN ATOMIC CHARGES AND SPIN DENSITIES
------------------------------------------
   0 Rh:   -0.000000    3.000000
Sum of atomic charges       :   -0.0000000

LOEWDIN ATOMIC CHARGES AND SPIN DENSITIES
-----------------------------------------
   0 Rh:   -0.000000    3.000000

FINAL SINGLE POINT ENERGY      -110.280486407493

DIPOLE MOMENT
-------------
                                X             Y             Z
Electronic contribution:      0.00000       0.00000       0.00000
Nuclear contribution   :      0.00000       0.00000       0.00000
                        -----------------------------------------
Total Dipole Moment    :      0.00000       0.00000       0.00000
                        -----------------------------------------
Magnitude (a.u.)       :      0.00000
Magnitude (Debye)      :      0.00000

Rotational constants in cm-1:     0.000000     0.000000     0.000000
Rotational constants in MHz :     0.000000     0.000000     0.000000

                             ****ORCA TERMINATED NORMALLY****
TOTAL RUN TIME: 0 days 0 hours 0 minutes 13 seconds 976 msec
