                         Program Version 4.2.0 -  RELEASE  -
|  1> #
|  2> # 49_In CCSD(T)/Def2-TZVPPD
|  3> #
|  4> ! CCSD(T) Def2-TZVPPD tightscf
|  5>
|  6> *xyz 0 2
|  7>  In 0.0 0.0 0.0
|  8> *
|  9>
| 10> %maxcore 5000
| 11>
| 12> %pal
| 13> nprocs 24
| 14> end
| 15>
| 16>
| 17>                          ****END OF INPUT****

CARTESIAN COORDINATES (ANGSTROEM)
---------------------------------
  In     0.000000    0.000000    0.000000

 Total Charge           Charge          ....    0
 Multiplicity           Mult            ....    2
 Number of Electrons    NEL             ....   21
 Basis Dimension        Dim             ....   56

ORBITAL ENERGIES
----------------
                 SPIN UP ORBITALS
  NO   OCC          E(Eh)            E(eV)
   0   1.0000      -5.373701      -146.2258
   1   1.0000      -3.627757       -98.7163
   2   1.0000      -3.627757       -98.7163
   3   1.0000      -3.623815       -98.6090
   4   1.0000      -1.015375       -27.6298
   5   1.0000      -1.015375       -27.6298
   6   1.0000      -1.008280       -27.4367
   7   1.0000      -1.008280       -27.4367
   8   1.0000      -1.006077       -27.3768
   9   1.0000      -0.424458       -11.5501
  10   1.0000      -0.201293        -5.4775
  11   0.0000       0.012237         0.3330
  12   0.0000       0.012237         0.3330
  13   0.0000       0.048186         1.3112
  14   0.0000       0.095522         2.5993
  15   0.0000       0.095522         2.5993

                 SPIN DOWN ORBITALS
  NO   OCC          E(Eh)            E(eV)
   0   1.0000      -5.373031      -146.2076
   1   1.0000      -3.629541       -98.7648
   2   1.0000      -3.629541       -98.7648
   3   1.0000      -3.618038       -98.4518
   4   1.0000      -1.016107       -27.6497
   5   1.0000      -1.016107       -27.6497
   6   1.0000      -1.005548       -27.3624
   7   1.0000      -1.005548       -27.3624
   8   1.0000      -1.002238       -27.2723
   9   1.0000      -0.368972       -10.0402
  10   0.0000       0.020772         0.5652
  11   0.0000       0.020772         0.5652
  12   0.0000       0.048646         1.3237
  13   0.0000       0.052992         1.4420
  14   0.0000       0.096574         2.6279

E(0)                                       ...   -189.210089546
E(0)                                       ...   -189.210089546
E(CORR)                                    ...     -0.246471177
E(TOT)                                     ...   -189.456560723
E(CCSD(T))                                 ...   -189.462829222

MULLIKEN ATOMIC CHARGES AND SPIN DENSITIES
------------------------------------------
   0 In:   -0.000000    1.000000
Sum of atomic charges       :   -0.0000000

LOEWDIN ATOMIC CHARGES AND SPIN DENSITIES
-----------------------------------------
   0 In:   -0.000000    1.000000

FINAL SINGLE POINT ENERGY      -189.462829222478

DIPOLE MOMENT
-------------
                                X             Y             Z
Electronic contribution:      0.00000      -0.00000      -0.00000
Nuclear contribution   :      0.00000       0.00000       0.00000
                        -----------------------------------------
Total Dipole Moment    :      0.00000      -0.00000      -0.00000
                        -----------------------------------------
Magnitude (a.u.)       :      0.00000
Magnitude (Debye)      :      0.00000

Rotational constants in cm-1:     0.000000     0.000000     0.000000
Rotational constants in MHz :     0.000000     0.000000     0.000000

                             ****ORCA TERMINATED NORMALLY****
TOTAL RUN TIME: 0 days 0 hours 0 minutes 13 seconds 988 msec
