                         Program Version 4.2.0 -  RELEASE  -
|  1> # input to generate an atomic fitting density for In
|  2> # this file is use internally by ORCA
|  3> #
|  4> # atomic ground state (S=2): 1s2 2s2 2p6 3s2 3p6 4s2 3d10 4p6 5s2 4d10 5p1
|  5> #
|  6> ! RHF AllowRHF def2-SVP def2/J  NoMulliken NoLoewdin NoMayer NoPrintMOs
|  7>
|  8> %output print[p_atomdensfit] 2 end
|  9>
| 10> %scf
| 11>   guess hcore
| 12>   maxiter 1000
| 13>   maxdisk 500000
| 14>   SCFMode Conventional
| 15>   lshift 1.000000
| 16>   hftyp rohf
| 17>   rohf_case sahf
| 18>   rohf_numop   2
| 19>   rohf_norb[1] 3
| 20>   rohf_nel[1]  1
| 21> end
| 22>
| 23> %basis
| 24>   NewECP 49
| 25>     N_core 28
| 26>     lmax f
| 27>     s 4
| 28>       1      15.3928220000    281.1223500000  2
| 29>       2       8.0558640000     61.9014700000  2
| 30>       3      12.5390560000     13.7280780000  2
| 31>       4      12.5525610000     18.2068660000  2
| 32>     p 6
| 33>       1      13.9286720000     67.4621540000  2
| 34>       2      13.3472340000    134.9492500000  2
| 35>       3       7.6141320000     14.7461400000  2
| 36>       4       7.3183650000     29.6392620000  2
| 37>       5      12.5390560000     13.7280780000  2
| 38>       6      12.5525610000     18.2068660000  2
| 39>     d 6
| 40>       1      14.0347150000     35.4932540000  2
| 41>       2      14.5116160000     53.1787730000  2
| 42>       3       5.5505500000      9.1772810000  2
| 43>       4       5.0594150000     12.3924100000  2
| 44>       5      12.5390560000     13.7280780000  2
| 45>       6      12.5525610000     18.2068660000  2
| 46>     f 2
| 47>       1      12.5390560000    -13.7280780000  2
| 48>       2      12.5525610000    -18.2068660000  2
| 49>   end
| 50>   NewGTO 49
| 51>     s 4
| 52>      1     847.7927677400      0.0001991321
| 53>      2      72.0410548240      0.0037802215
| 54>      3      41.0613165220     -0.0137092240
| 55>      4      12.4076097130      1.0083428725
| 56>     s 2
| 57>      1      11.6403169410      0.7070046123
| 58>      2       6.3695642727      0.3069946789
| 59>     s 1
| 60>      1       1.7063236353      1.0000000000
| 61>     s 1
| 62>      1       0.7866696794      1.0000000000
| 63>     s 1
| 64>      1       0.1696519687      1.0000000000
| 65>     s 1
| 66>      1       0.0620748587      1.0000000000
| 67>     p 3
| 68>      1     268.2813668500      0.0005395928
| 69>      2      14.7815537820      0.3636176018
| 70>      3       8.8041476194     -1.3245278979
| 71>     p 3
| 72>      1       2.3717277227      0.4522459931
| 73>      2       1.1927065422      0.4560012447
| 74>      3       0.5835281204      0.1590437856
| 75>     p 1
| 76>      1       0.2328096831      1.0000000000
| 77>     p 1
| 78>      1       0.0886740652      1.0000000000
| 79>     p 1
| 80>      1       0.0335988283      1.0000000000
| 81>     s 1
| 82>      1       0.0215217282      1.0000000000
| 83>   end
| 84>   NewAuxGTO 49
| 85>     S 1
| 86>      1 1310.72 1.0
| 87>     S 1
| 88>      1  655.36 1.0
| 89>     S 1
| 90>      1  327.68 1.0
| 91>     S 1
| 92>      1  163.84 1.0
| 93>     S 1
| 94>      1   81.82 1.0
| 95>     S 1
| 96>      1   40.96 1.0
| 97>     S 1
| 98>      1   20.48 1.0
| 99>     S 1
|100>      1   10.24 1.0
|101>     S 1
|102>      1    5.12 1.0
|103>     S 1
|104>      1    2.56 1.0
|105>     S 1
|106>      1    1.28 1.0
|107>     S 1
|108>      1    0.64 1.0
|109>     S 1
|110>      1    0.32 1.0
|111>     S 1
|112>      1    0.16 1.0
|113>     S 1
|114>      1    0.08 1.0
|115>     S 1
|116>      1    0.04 1.0
|117>     S 1
|118>      1    0.02 1.0
|119>     S 1
|120>      1    0.01 1.0
|121>   end
|122> end
|123>
|124> * xyz 0 2
|125> 49  0.0 0.0 0.0
|126> *
|127>
|128>
|129>                          ****END OF INPUT****

CARTESIAN COORDINATES (ANGSTROEM)
---------------------------------
  In     0.000000    0.000000    0.000000

 Total Charge           Charge          ....    0
 Multiplicity           Mult            ....    2
 Number of Electrons    NEL             ....   21
 Basis Dimension        Dim             ....   22

ORBITAL ENERGIES
----------------

  NO   OCC          E(Eh)            E(eV)
   0   2.0000      -9.439655      -256.8661
   1   2.0000      -7.329572      -199.4478
   2   2.0000      -7.329572      -199.4478
   3   2.0000      -7.323857      -199.2923
   4   2.0000      -2.318070       -63.0779
   5   2.0000      -1.377903       -37.4946
   6   2.0000      -1.377903       -37.4946
   7   2.0000      -1.356908       -36.9234
   8   2.0000      -0.396131       -10.7793
   9   2.0000      -0.169113        -4.6018
  10   0.3333      -0.190757        -5.1908
  11   0.3333      -0.190757        -5.1908
  12   0.3333      -0.078855        -2.1458
  13   0.0000       0.019584         0.5329
  14   0.0000       0.019584         0.5329
  15   0.0000       0.040486         1.1017
  16   0.0000       0.578160        15.7325
  17   0.0000      33.198613       903.3802

CleanUpVectors: The p-vectors have cracked symmetry
CleanUpVectors: The p-vectors have cracked symmetry
CleanUpVectors: The p-vectors have cracked symmetry
CleanUpVectors: The p-vectors have cracked symmetry
CleanUpVectors: The p-vectors have cracked symmetry
CleanUpVectors: The p-vectors have cracked symmetry
CleanUpVectors: The p-vectors have cracked symmetry
CleanUpVectors: The p-vectors have cracked symmetry
CleanUpVectors: The p-vectors have cracked symmetry
CleanUpVectors: The p-vectors have cracked symmetry
CleanUpVectors: The p-vectors have cracked symmetry
CleanUpVectors: The p-vectors have cracked symmetry
CleanUpVectors: The p-vectors have cracked symmetry
CleanUpVectors: The p-vectors have cracked symmetry
--------------------------
ATOM BASIS FOR ELEMENT In
--------------------------
 NewGTO In
 S 11
    1        847.792767740000         0.000341719596
    2         72.041054824000         0.006487029283
    3         41.061316522000        -0.023525641960
    4         12.407609713000         1.730361499011
    5         11.640316941000        -1.635876598700
    6          6.369564272700        -0.710328337893
    7          1.706323635300         1.235863971359
    8          0.786669679400         0.173218294057
    9          0.169651968700         0.004588762812
   10          0.062074858700        -0.003149639087
   11          0.021521728200         0.001039605031
 P 20
    1        268.281366850000         0.000004499703
    2         14.781553782000         0.003032232944
    3          8.804147619400        -0.011045331985
    4        268.281366850000        -0.000097907750
    5         14.781553782000        -0.065977495266
    6          8.804147619400         0.240332241017
    7        268.281366850000        -0.000045117399
    8         14.781553782000        -0.030403445897
    9          8.804147619400         0.110748797869
   10          2.371727722700         0.021566981448
   11          1.192706542200         0.021746064166
   12          0.583528120400         0.007584576593
   13          2.371727722700        -0.469269822827
   14          1.192706542200        -0.473166432813
   15          0.583528120400        -0.165030647543
   16          2.371727722700        -0.216246761293
   17          1.192706542200        -0.218042379184
   18          0.583528120400        -0.076048663923
   19          0.232809683100        -0.007084611119
   20          0.232809683100         0.154152040824
 S 11
    1        847.792767740000         0.000266253872
    2         72.041054824000         0.005054426748
    3         41.061316522000        -0.018330213847
    4         12.407609713000         1.348226601586
    5         11.640316941000        -1.294087419356
    6          6.369564272700        -0.561917058053
    7          1.706323635300         1.921067393417
    8          0.786669679400        -1.121845850239
    9          0.169651968700        -1.006515396039
   10          0.062074858700         0.378454659087
   11          0.021521728200        -0.109190691997
 P 20
    1        268.281366850000         0.000004055116
    2         14.781553782000         0.002732637583
    3          8.804147619400        -0.009954014038
    4        268.281366850000         0.000002004494
    5         14.781553782000         0.001350776278
    6          8.804147619400        -0.004920391242
    7        268.281366850000        -0.000036759340
    8         14.781553782000        -0.024771166496
    9          8.804147619400         0.090232433537
   10          2.371727722700         0.026396058110
   11          1.192706542200         0.026615239354
   12          0.583528120400         0.009282844007
   13          2.371727722700         0.013047895317
   14          1.192706542200         0.013156239295
   15          0.583528120400         0.004588623663
   16          2.371727722700        -0.239278400643
   17          1.192706542200        -0.241265263126
   18          0.583528120400        -0.084148324653
   19          0.232809683100        -0.155000994032
   20          0.232809683100        -0.076618892706
 S 11
    1        847.792767740000         0.000330189113
    2         72.041054824000         0.006268140513
    3         41.061316522000        -0.022731827318
    4         12.407609713000         1.671974727028
    5         11.640316941000        -1.609270210904
    6          6.369564272700        -0.698775344694
    7          1.706323635300         3.328270059216
    8          0.786669679400        -4.097624254466
    9          0.169651968700         3.463596719354
   10          0.062074858700        -2.878929226519
   11          0.021521728200         1.010954503179
 S 11
    1        847.792767740000         0.001901741688
    2         72.041054824000         0.036101687353
    3         41.061316522000        -0.130925163697
    4         12.407609713000         9.629827016104
    5         11.640316941000        -7.876907886391
    6          6.369564272700        -3.420301318036
    7          1.706323635300         2.825334062576
    8          0.786669679400        -1.795760833091
    9          0.169651968700         0.623952333900
   10          0.062074858700        -0.382557832996
   11          0.021521728200         0.119917471810
 S 11
    1        847.792767740000         0.001308871688
    2         72.041054824000         0.024846947814
    3         41.061316522000        -0.090109104267
    4         12.407609713000         6.627718172465
    5         11.640316941000        -4.349115887169
    6          6.369564272700        -1.888467786564
    7          1.706323635300         0.996606804457
    8          0.786669679400        -0.588602347892
    9          0.169651968700         0.196772087702
   10          0.062074858700        -0.120279500476
   11          0.021521728200         0.037707262606
 P 20
    1        268.281366850000         0.000000045473
    2         14.781553782000         0.000030642937
    3          8.804147619400        -0.000111621177
    4        268.281366850000        -0.000036981920
    5         14.781553782000        -0.024921157115
    6          8.804147619400         0.090778795315
    7        268.281366850000        -0.000002011615
    8         14.781553782000        -0.001355574910
    9          8.804147619400         0.004937870932
   10          2.371727722700         0.000295997078
   11          1.192706542200         0.000298454908
   12          0.583528120400         0.000104094888
   13          2.371727722700        -0.240727243008
   14          1.192706542200        -0.242726136040
   15          0.583528120400        -0.084657846856
   16          2.371727722700        -0.013094247965
   17          1.192706542200        -0.013202976835
   18          0.583528120400        -0.004604924748
   19          0.232809683100        -0.001738132307
   20          0.232809683100         1.413580838526
 P 20
    1        268.281366850000         0.000001186170
    2         14.781553782000         0.000799329000
    3          8.804147619400        -0.002911667517
    4        268.281366850000         0.000006213643
    5         14.781553782000         0.004187212980
    6          8.804147619400        -0.015252508070
    7        268.281366850000        -0.000010509320
    8         14.781553782000        -0.007081958658
    9          8.804147619400         0.025797023487
   10          2.371727722700         0.008211828218
   11          1.192706542200         0.008280015624
   12          0.583528120400         0.002887897884
   13          2.371727722700         0.043016922587
   14          1.192706542200         0.043374116171
   15          0.583528120400         0.015127992989
   16          2.371727722700        -0.072755808896
   17          1.192706542200        -0.073359941098
   18          0.583528120400        -0.025586427404
   19          0.232809683100        -0.084488779081
   20          0.232809683100        -0.442586860392
 P 20
    1        268.281366850000         0.000001334521
    2         14.781553782000         0.000899298865
    3          8.804147619400        -0.003275821712
    4        268.281366850000         0.000003855889
    5         14.781553782000         0.002598383859
    6          8.804147619400        -0.009464976100
    7        268.281366850000        -0.000011959188
    8         14.781553782000        -0.008058986787
    9          8.804147619400         0.029355984901
   10          2.371727722700         0.009312252523
   11          1.192706542200         0.009389577368
   12          0.583528120400         0.003274890030
   13          2.371727722700         0.026906301783
   14          1.192706542200         0.027129719866
   15          0.583528120400         0.009462284149
   16          2.371727722700        -0.083450922700
   17          1.192706542200        -0.084143862418
   18          0.583528120400        -0.029347635713
   19          0.232809683100        -0.122303887664
   20          0.232809683100        -0.353378014882
 P 20
    1        268.281366850000         0.000068939879
    2         14.781553782000         0.046456797403
    3          8.804147619400        -0.169225372761
    4        268.281366850000        -0.000015568550
    5         14.781553782000        -0.010491242505
    6          8.804147619400         0.038215816047
    7        268.281366850000        -0.000627080947
    8         14.781553782000        -0.422573596233
    9          8.804147619400         1.539283341497
   10          2.371727722700         0.025964617113
   11          1.192706542200         0.026180215861
   12          0.583528120400         0.009131116826
   13          2.371727722700        -0.005863535799
   14          1.192706542200        -0.005912224019
   15          0.583528120400        -0.002062061234
   16          2.371727722700        -0.236175591982
   17          1.192706542200        -0.238136690108
   18          0.583528120400        -0.083057143210
   19          0.232809683100        -0.035091867507
   20          0.232809683100         0.007924723884
 end
  // -----------------------------------------------
  // The basis set
  // -----------------------------------------------
  BAS[ATNO] = new BFNGauss[NSH];
  // Basis function   1 L = s
  InitBFNGauss(BAS[ATNO][  0]);
  BAS[ATNO][  0].l  = 0;
  BAS[ATNO][  0].ng = 11;
  BAS[ATNO][  0].a[  0] =       847.792767740000;     BAS[ATNO][  0].d[  0] =         0.000341719596;
  BAS[ATNO][  0].a[  1] =        72.041054824000;     BAS[ATNO][  0].d[  1] =         0.006487029283;
  BAS[ATNO][  0].a[  2] =        41.061316522000;     BAS[ATNO][  0].d[  2] =        -0.023525641960;
  BAS[ATNO][  0].a[  3] =        12.407609713000;     BAS[ATNO][  0].d[  3] =         1.730361499011;
  BAS[ATNO][  0].a[  4] =        11.640316941000;     BAS[ATNO][  0].d[  4] =        -1.635876598700;
  BAS[ATNO][  0].a[  5] =         6.369564272700;     BAS[ATNO][  0].d[  5] =        -0.710328337893;
  BAS[ATNO][  0].a[  6] =         1.706323635300;     BAS[ATNO][  0].d[  6] =         1.235863971359;
  BAS[ATNO][  0].a[  7] =         0.786669679400;     BAS[ATNO][  0].d[  7] =         0.173218294057;
  BAS[ATNO][  0].a[  8] =         0.169651968700;     BAS[ATNO][  0].d[  8] =         0.004588762812;
  BAS[ATNO][  0].a[  9] =         0.062074858700;     BAS[ATNO][  0].d[  9] =        -0.003149639087;
  BAS[ATNO][  0].a[ 10] =         0.021521728200;     BAS[ATNO][  0].d[ 10] =         0.001039605031;

FINAL SINGLE POINT ENERGY      -169.266282746287

DIPOLE MOMENT
-------------
                                X             Y             Z
Electronic contribution:     -0.00000      -0.00000       0.00000
Nuclear contribution   :      0.00000       0.00000       0.00000
                        -----------------------------------------
Total Dipole Moment    :     -0.00000      -0.00000       0.00000
                        -----------------------------------------
Magnitude (a.u.)       :      0.00000
Magnitude (Debye)      :      0.00000

Rotational constants in cm-1:     0.000000     0.000000     0.000000
Rotational constants in MHz :     0.000000     0.000000     0.000000

                             ****ORCA TERMINATED NORMALLY****
TOTAL RUN TIME: 0 days 0 hours 0 minutes 1 seconds 324 msec
