                         Program Version 4.2.0 -  RELEASE  -
|  1> # input to generate an atomic fitting density for Sn
|  2> # this file is use internally by ORCA
|  3> #
|  4> # atomic ground state (S=3): 1s2 2s2 2p6 3s2 3p6 4s2 3d10 4p6 5s2 4d10 5p2
|  5> #
|  6> ! RHF AllowRHF def2-SVP def2/J  NoMulliken NoLoewdin NoMayer NoPrintMOs
|  7>
|  8> %output print[p_atomdensfit] 2 end
|  9>
| 10> %scf
| 11>   guess hcore
| 12>   maxiter 1000
| 13>   maxdisk 500000
| 14>   SCFMode Conventional
| 15>   lshift 1.000000
| 16>   hftyp rohf
| 17>   rohf_case sahf
| 18>   rohf_numop   2
| 19>   rohf_norb[1] 3
| 20>   rohf_nel[1]  2
| 21> end
| 22>
| 23> %basis
| 24>   NewECP 50
| 25>     N_core 28
| 26>     lmax f
| 27>     s 4
| 28>       1      17.4204140000    279.9886820000  2
| 29>       2       7.6311550000     62.3778100000  2
| 30>       3      12.2823480000     12.5763330000  2
| 31>       4      12.2721500000     16.5959440000  2
| 32>     p 6
| 33>       1      16.1310240000     66.1625230000  2
| 34>       2      15.6280770000    132.1743960000  2
| 35>       3       7.3256080000     16.3394170000  2
| 36>       4       6.9425190000     32.4889590000  2
| 37>       5      12.2823480000     12.5763330000  2
| 38>       6      12.2721500000     16.5959440000  2
| 39>     d 6
| 40>       1      15.5149760000     36.3874410000  2
| 41>       2      15.1881600000     54.5078410000  2
| 42>       3       5.4560240000      8.6968230000  2
| 43>       4       5.3631050000     12.8402080000  2
| 44>       5      12.2823480000     12.5763330000  2
| 45>       6      12.2721500000     16.5959440000  2
| 46>     f 2
| 47>       1      12.2823480000    -12.5763330000  2
| 48>       2      12.2721500000    -16.5959440000  2
| 49>   end
| 50>   NewGTO 50
| 51>     s 4
| 52>      1    1577.0715931000      0.0003218419
| 53>      2     235.2660107800      0.0015384537
| 54>      3      38.2063306450     -0.0073758372
| 55>      4      13.0970317650      1.0055154359
| 56>     s 2
| 57>      1      11.6814927590      0.6809914776
| 58>      2       5.9647604361      0.3371650694
| 59>     s 1
| 60>      1       1.8891070740      1.0000000000
| 61>     s 1
| 62>      1       0.8851408063      1.0000000000
| 63>     s 1
| 64>      1       0.2050010515      1.0000000000
| 65>     s 1
| 66>      1       0.0767485510      1.0000000000
| 67>     p 3
| 68>      1     221.5576749600      0.0012361685
| 69>      2      21.0840214330      0.1235490029
| 70>      3       8.7600138521     -1.0950328657
| 71>     p 3
| 72>      1       2.5912909722      0.4264068280
| 73>      2       1.3426801157      0.4614253825
| 74>      3       0.6773273583      0.1761114631
| 75>     p 1
| 76>      1       0.2941875675      1.0000000000
| 77>     p 1
| 78>      1       0.1186376205      1.0000000000
| 79>     p 1
| 80>      1       0.0462157506      1.0000000000
| 81>     s 1
| 82>      1       0.0291380725      1.0000000000
| 83>   end
| 84>   NewAuxGTO 50
| 85>     S 1
| 86>      1 1310.72 1.0
| 87>     S 1
| 88>      1  655.36 1.0
| 89>     S 1
| 90>      1  327.68 1.0
| 91>     S 1
| 92>      1  163.84 1.0
| 93>     S 1
| 94>      1   81.82 1.0
| 95>     S 1
| 96>      1   40.96 1.0
| 97>     S 1
| 98>      1   20.48 1.0
| 99>     S 1
|100>      1   10.24 1.0
|101>     S 1
|102>      1    5.12 1.0
|103>     S 1
|104>      1    2.56 1.0
|105>     S 1
|106>      1    1.28 1.0
|107>     S 1
|108>      1    0.64 1.0
|109>     S 1
|110>      1    0.32 1.0
|111>     S 1
|112>      1    0.16 1.0
|113>     S 1
|114>      1    0.08 1.0
|115>     S 1
|116>      1    0.04 1.0
|117>     S 1
|118>      1    0.02 1.0
|119>     S 1
|120>      1    0.01 1.0
|121>   end
|122> end
|123>
|124> * xyz 0 3
|125> 50  0.0 0.0 0.0
|126> *
|127>
|128>
|129>                          ****END OF INPUT****

CARTESIAN COORDINATES (ANGSTROEM)
---------------------------------
  Sn     0.000000    0.000000    0.000000

 Total Charge           Charge          ....    0
 Multiplicity           Mult            ....    3
 Number of Electrons    NEL             ....   22
 Basis Dimension        Dim             ....   22

ORBITAL ENERGIES
----------------

  NO   OCC          E(Eh)            E(eV)
   0   2.0000     -10.168619      -276.7022
   1   2.0000      -7.991287      -217.4540
   2   2.0000      -7.991287      -217.4540
   3   2.0000      -7.985359      -217.2927
   4   2.0000      -2.603524       -70.8455
   5   2.0000      -1.638847       -44.5953
   6   2.0000      -1.638847       -44.5953
   7   2.0000      -1.619765       -44.0760
   8   2.0000      -0.466554       -12.6956
   9   2.0000      -0.218312        -5.9406
  10   0.6667      -0.254901        -6.9362
  11   0.6667      -0.254901        -6.9362
  12   0.6667      -0.074535        -2.0282
  13   0.0000       0.119528         3.2525
  14   0.0000       0.119528         3.2525
  15   0.0000       0.142334         3.8731
  16   0.0000       0.849570        23.1180
  17   0.0000      31.506165       857.3263

CleanUpVectors: The p-vectors have cracked symmetry
CleanUpVectors: The p-vectors have cracked symmetry
CleanUpVectors: The p-vectors have cracked symmetry
CleanUpVectors: The p-vectors have cracked symmetry
CleanUpVectors: The p-vectors have cracked symmetry
CleanUpVectors: The p-vectors have cracked symmetry
CleanUpVectors: The p-vectors have cracked symmetry
CleanUpVectors: The p-vectors have cracked symmetry
CleanUpVectors: The p-vectors have cracked symmetry
CleanUpVectors: The p-vectors have cracked symmetry
CleanUpVectors: The p-vectors have cracked symmetry
CleanUpVectors: The p-vectors have cracked symmetry
CleanUpVectors: The p-vectors have cracked symmetry
CleanUpVectors: The p-vectors have cracked symmetry
--------------------------
ATOM BASIS FOR ELEMENT Sn
--------------------------
 NewGTO Sn
 S 11
    1       1577.071593100000         0.000349696874
    2        235.266010780000         0.001671604752
    3         38.206330645000        -0.008014205765
    4         13.097031765000         1.092541413931
    5         11.681492759000        -1.159240687224
    6          5.964760436100        -0.573950599406
    7          1.889107074000         1.222400636526
    8          0.885140806300         0.212299098143
    9          0.205001051500         0.003581728429
   10          0.076748551000        -0.002537328928
   11          0.029138072500         0.000883020395
 P 20
    1        221.557674960000        -0.000202714924
    2         21.084021433000        -0.020260366388
    3          8.760013852100         0.179570587747
    4        221.557674960000         0.000068263566
    5         21.084021433000         0.006822609966
    6          8.760013852100        -0.060469789051
    7        221.557674960000        -0.000066104280
    8         21.084021433000        -0.006606799908
    9          8.760013852100         0.058557032967
   10          2.591290972200        -0.444778174065
   11          1.342680115700        -0.481305470783
   12          0.677327358300        -0.183699063537
   13          2.591290972200         0.149777548193
   14          1.342680115700         0.162077992017
   15          0.677327358300         0.061860039332
   16          2.591290972200        -0.145039844935
   17          1.342680115700        -0.156951206060
   18          0.677327358300        -0.059903307410
   19          0.294187567500         0.173553049893
   20          0.294187567500        -0.058443403499
 S 11
    1       1577.071593100000         0.000281338173
    2        235.266010780000         0.001344839665
    3         38.206330645000        -0.006447589827
    4         13.097031765000         0.878971555318
    5         11.681492759000        -0.953741952311
    6          5.964760436100        -0.472206308182
    7          1.889107074000         1.952854604589
    8          0.885140806300        -1.047181999890
    9          0.205001051500        -1.069272973221
   10          0.076748551000         0.396712917191
   11          0.029138072500        -0.120199779464
 P 20
    1        221.557674960000        -0.000058445121
    2         21.084021433000        -0.005841304328
    3          8.760013852100         0.051772333794
    4        221.557674960000        -0.000028807693
    5         21.084021433000        -0.002879188188
    6          8.760013852100         0.025518665614
    7        221.557674960000         0.000054993733
    8         21.084021433000         0.005496354989
    9          8.760013852100        -0.048714997392
   10          2.591290972200        -0.181023817173
   11          1.342680115700        -0.195890353052
   12          0.677327358300        -0.074765147284
   13          2.591290972200        -0.089226927203
   14          1.342680115700        -0.096554666366
   15          0.677327358300        -0.036851859927
   16          2.591290972200         0.170333731072
   17          1.342680115700         0.184322346294
   18          0.677327358300         0.070350005264
   19          0.294187567500         1.004980267639
   20          0.294187567500         0.495356371229
 S 11
    1       1577.071593100000         0.000376240261
    2        235.266010780000         0.001798486218
    3         38.206330645000        -0.008622515941
    4         13.097031765000         1.175469663984
    5         11.681492759000        -1.277899562615
    6          5.964760436100        -0.632699686983
    7          1.889107074000         3.712480071238
    8          0.885140806300        -4.564691592097
    9          0.205001051500         3.806268783021
   10          0.076748551000        -3.168282574985
   11          0.029138072500         1.148210195070
 S 11
    1       1577.071593100000         0.002277970583
    2        235.266010780000         0.010889049164
    3         38.206330645000        -0.052205571020
    4         13.097031765000         7.116955821733
    5         11.681492759000        -6.101575830418
    6          5.964760436100        -3.020945644669
    7          1.889107074000         3.422532995094
    8          0.885140806300        -2.193756476157
    9          0.205001051500         0.797682842644
   10          0.076748551000        -0.501275719355
   11          0.029138072500         0.164467066257
 S 11
    1       1577.071593100000         0.001712583314
    2        235.266010780000         0.008186411201
    3         38.206330645000        -0.039248263548
    4         13.097031765000         5.350543098969
    5         11.681492759000        -3.435461770564
    6          5.964760436100        -1.700928344031
    7          1.889107074000         1.243498946609
    8          0.885140806300        -0.727586703050
    9          0.205001051500         0.251579011391
   10          0.076748551000        -0.157312471131
   11          0.029138072500         0.051601958120
 P 20
    1        221.557674960000        -0.000061463368
    2         21.084021433000        -0.006142963379
    3          8.760013852100         0.054445982036
    4        221.557674960000         0.000037487007
    5         21.084021433000         0.003746643250
    6          8.760013852100        -0.033207046582
    7        221.557674960000        -0.000045683747
    8         21.084021433000        -0.004565867313
    9          8.760013852100         0.040467949164
   10          2.591290972200        -0.190372323896
   11          1.342680115700        -0.206006603560
   12          0.677327358300        -0.078626199895
   13          2.591290972200         0.116109626296
   14          1.342680115700         0.125645100424
   15          0.677327358300         0.047954757814
   16          2.591290972200        -0.141497631919
   17          1.342680115700        -0.153118089683
   18          0.677327358300        -0.058440328217
   19          0.294187567500         1.056879873643
   20          0.294187567500        -0.644599617512
 P 20
    1        221.557674960000        -0.000029041180
    2         21.084021433000        -0.002902524117
    3          8.760013852100         0.025725495362
    4        221.557674960000         0.000007059712
    5         21.084021433000         0.000705583742
    6          8.760013852100        -0.006253691807
    7        221.557674960000        -0.000005316480
    8         21.084021433000        -0.000531356156
    9          8.760013852100         0.004709487256
   10          2.591290972200        -0.097057055002
   11          1.342680115700        -0.105027841460
   12          0.677327358300        -0.040085802661
   13          2.591290972200         0.023593905622
   14          1.342680115700         0.025531549242
   15          0.677327358300         0.009744584201
   16          2.591290972200        -0.017767936328
   17          1.342680115700        -0.019227123672
   18          0.677327358300        -0.007338384513
   19          0.294187567500         0.934024466874
   20          0.294187567500        -0.227054953602
 P 20
    1        221.557674960000        -0.000031721593
    2         21.084021433000        -0.003170418296
    3          8.760013852100         0.028099880620
    4        221.557674960000         0.000007398195
    5         21.084021433000         0.000739413456
    6          8.760013852100        -0.006553529506
    7        221.557674960000        -0.000005328996
    8         21.084021433000        -0.000532607148
    9          8.760013852100         0.004720574980
   10          2.591290972200        -0.106884748532
   11          1.342680115700        -0.115662631872
   12          0.677327358300        -0.044144765541
   13          2.591290972200         0.024927947656
   14          1.342680115700         0.026975149146
   15          0.677327358300         0.010295560590
   16          2.591290972200        -0.017955858123
   17          1.342680115700        -0.019430478497
   18          0.677327358300        -0.007415998613
   19          0.294187567500         1.346782339501
   20          0.294187567500        -0.314100188519
 P 20
    1        221.557674960000        -0.000917991395
    2         21.084021433000        -0.091748755500
    3          8.760013852100         0.813182626338
    4        221.557674960000         0.000706770167
    5         21.084021433000         0.070638225658
    6          8.760013852100        -0.626076915674
    7        221.557674960000        -0.000906628734
    8         21.084021433000        -0.090613113080
    9          8.760013852100         0.803117261625
   10          2.591290972200        -0.162472414047
   11          1.342680115700        -0.175815420567
   12          0.677327358300        -0.067103180982
   13          2.591290972200         0.125089032370
   14          1.342680115700         0.135361937984
   15          0.677327358300         0.051663367146
   16          2.591290972200        -0.160461372431
   17          1.342680115700        -0.173639222659
   18          0.677327358300        -0.066272595123
   19          0.294187567500         0.269397242948
   20          0.294187567500        -0.207411458992
 end
  // -----------------------------------------------
  // The basis set
  // -----------------------------------------------
  BAS[ATNO] = new BFNGauss[NSH];
  // Basis function   1 L = s
  InitBFNGauss(BAS[ATNO][  0]);
  BAS[ATNO][  0].l  = 0;
  BAS[ATNO][  0].ng = 11;
  BAS[ATNO][  0].a[  0] =      1577.071593100000;     BAS[ATNO][  0].d[  0] =         0.000349696874;
  BAS[ATNO][  0].a[  1] =       235.266010780000;     BAS[ATNO][  0].d[  1] =         0.001671604752;
  BAS[ATNO][  0].a[  2] =        38.206330645000;     BAS[ATNO][  0].d[  2] =        -0.008014205765;
  BAS[ATNO][  0].a[  3] =        13.097031765000;     BAS[ATNO][  0].d[  3] =         1.092541413931;
  BAS[ATNO][  0].a[  4] =        11.681492759000;     BAS[ATNO][  0].d[  4] =        -1.159240687224;
  BAS[ATNO][  0].a[  5] =         5.964760436100;     BAS[ATNO][  0].d[  5] =        -0.573950599406;
  BAS[ATNO][  0].a[  6] =         1.889107074000;     BAS[ATNO][  0].d[  6] =         1.222400636526;
  BAS[ATNO][  0].a[  7] =         0.885140806300;     BAS[ATNO][  0].d[  7] =         0.212299098143;
  BAS[ATNO][  0].a[  8] =         0.205001051500;     BAS[ATNO][  0].d[  8] =         0.003581728429;
  BAS[ATNO][  0].a[  9] =         0.076748551000;     BAS[ATNO][  0].d[  9] =        -0.002537328928;
  BAS[ATNO][  0].a[ 10] =         0.029138072500;     BAS[ATNO][  0].d[ 10] =         0.000883020395;

FINAL SINGLE POINT ENERGY      -189.327424478874

DIPOLE MOMENT
-------------
                                X             Y             Z
Electronic contribution:      0.00000       0.00000      -0.00000
Nuclear contribution   :      0.00000       0.00000       0.00000
                        -----------------------------------------
Total Dipole Moment    :      0.00000       0.00000      -0.00000
                        -----------------------------------------
Magnitude (a.u.)       :      0.00000
Magnitude (Debye)      :      0.00000

Rotational constants in cm-1:     0.000000     0.000000     0.000000
Rotational constants in MHz :     0.000000     0.000000     0.000000

                             ****ORCA TERMINATED NORMALLY****
TOTAL RUN TIME: 0 days 0 hours 0 minutes 1 seconds 74 msec
