                         Program Version 4.2.0 -  RELEASE  -
|  1> #
|  2> # 50_Sn CCSD(T)/Def2-TZVPPD
|  3> #
|  4> ! CCSD(T) Def2-TZVPPD tightscf
|  5>
|  6> *xyz 0 3
|  7>  Sn 0.0 0.0 0.0
|  8> *
|  9>
| 10> %maxcore 5000
| 11>
| 12> %pal
| 13> nprocs 24
| 14> end
| 15>
| 16>
| 17>                          ****END OF INPUT****

CARTESIAN COORDINATES (ANGSTROEM)
---------------------------------
  Sn     0.000000    0.000000    0.000000

 Total Charge           Charge          ....    0
 Multiplicity           Mult            ....    3
 Number of Electrons    NEL             ....   22
 Basis Dimension        Dim             ....   56

ORBITAL ENERGIES
----------------
                 SPIN UP ORBITALS
  NO   OCC          E(Eh)            E(eV)
   0   1.0000      -5.859641      -159.4489
   1   1.0000      -4.048129      -110.1552
   2   1.0000      -4.044333      -110.0519
   3   1.0000      -4.044333      -110.0519
   4   1.0000      -1.315310       -35.7914
   5   1.0000      -1.312380       -35.7117
   6   1.0000      -1.312380       -35.7117
   7   1.0000      -1.304041       -35.4848
   8   1.0000      -1.304041       -35.4848
   9   1.0000      -0.573872       -15.6158
  10   1.0000      -0.266859        -7.2616
  11   1.0000      -0.266859        -7.2616
  12   0.0000      -0.015933        -0.4335
  13   0.0000       0.060426         1.6443
  14   0.0000       0.115085         3.1316
  15   0.0000       0.115085         3.1316
  16   0.0000       0.115888         3.1535

                 SPIN DOWN ORBITALS
  NO   OCC          E(Eh)            E(eV)
   0   1.0000      -5.854464      -159.3081
   1   1.0000      -4.050483      -110.2192
   2   1.0000      -4.035091      -109.8004
   3   1.0000      -4.035091      -109.8004
   4   1.0000      -1.312925       -35.7265
   5   1.0000      -1.308293       -35.6005
   6   1.0000      -1.308293       -35.6005
   7   1.0000      -1.294950       -35.2374
   8   1.0000      -1.294950       -35.2374
   9   1.0000      -0.441794       -12.0218
  10   0.0000       0.005640         0.1535
  11   0.0000       0.041017         1.1161
  12   0.0000       0.041017         1.1161
  13   0.0000       0.070730         1.9247
  14   0.0000       0.125705         3.4206

E(0)                                       ...   -213.339962180
E(0)                                       ...   -213.339962180
E(CORR)                                    ...     -0.262188967
E(TOT)                                     ...   -213.602151147
E(CCSD(T))                                 ...   -213.608186603

MULLIKEN ATOMIC CHARGES AND SPIN DENSITIES
------------------------------------------
   0 Sn:    0.000000    2.000000
Sum of atomic charges       :    0.0000000

LOEWDIN ATOMIC CHARGES AND SPIN DENSITIES
-----------------------------------------
   0 Sn:    0.000000    2.000000

FINAL SINGLE POINT ENERGY      -213.608186603307

DIPOLE MOMENT
-------------
                                X             Y             Z
Electronic contribution:     -0.00000      -0.00000      -0.00000
Nuclear contribution   :      0.00000       0.00000       0.00000
                        -----------------------------------------
Total Dipole Moment    :     -0.00000      -0.00000      -0.00000
                        -----------------------------------------
Magnitude (a.u.)       :      0.00000
Magnitude (Debye)      :      0.00000

Rotational constants in cm-1:     0.000000     0.000000     0.000000
Rotational constants in MHz :     0.000000     0.000000     0.000000

                             ****ORCA TERMINATED NORMALLY****
TOTAL RUN TIME: 0 days 0 hours 0 minutes 13 seconds 457 msec
