                         Program Version 4.2.0 -  RELEASE  -
|  1> #
|  2> # 51_Sb CCSD(T)/Def2-TZVPPD
|  3> #
|  4> ! CCSD(T) Def2-TZVPPD tightscf
|  5>
|  6> *xyz 0 4
|  7>  Sb 0.0 0.0 0.0
|  8> *
|  9>
| 10> %maxcore 5000
| 11>
| 12> %pal
| 13> nprocs 24
| 14> end
| 15>
| 16>
| 17>                          ****END OF INPUT****

CARTESIAN COORDINATES (ANGSTROEM)
---------------------------------
  Sb     0.000000    0.000000    0.000000

 Total Charge           Charge          ....    0
 Multiplicity           Mult            ....    4
 Number of Electrons    NEL             ....   23
 Basis Dimension        Dim             ....   56

ORBITAL ENERGIES
----------------
                 SPIN UP ORBITALS
  NO   OCC          E(Eh)            E(eV)
   0   1.0000      -6.525023      -177.5549
   1   1.0000      -4.592148      -124.9587
   2   1.0000      -4.592148      -124.9587
   3   1.0000      -4.592148      -124.9587
   4   1.0000      -1.619546       -44.0701
   5   1.0000      -1.619546       -44.0701
   6   1.0000      -1.619546       -44.0701
   7   1.0000      -1.619546       -44.0701
   8   1.0000      -1.619546       -44.0701
   9   1.0000      -0.731554       -19.9066
  10   1.0000      -0.334257        -9.0956
  11   1.0000      -0.334257        -9.0956
  12   1.0000      -0.334257        -9.0956
  13   0.0000       0.072996         1.9863
  14   0.0000       0.132403         3.6029
  15   0.0000       0.132403         3.6029
  16   0.0000       0.132403         3.6029
  17   0.0000       0.132403         3.6029

                 SPIN DOWN ORBITALS
  NO   OCC          E(Eh)            E(eV)
   0   1.0000      -6.512828      -177.2231
   1   1.0000      -4.579848      -124.6240
   2   1.0000      -4.579848      -124.6240
   3   1.0000      -4.579848      -124.6240
   4   1.0000      -1.607802       -43.7505
   5   1.0000      -1.607802       -43.7505
   6   1.0000      -1.607802       -43.7505
   7   1.0000      -1.607802       -43.7505
   8   1.0000      -1.607802       -43.7505
   9   1.0000      -0.507537       -13.8108
  10   0.0000       0.027227         0.7409
  11   0.0000       0.027227         0.7409
  12   0.0000       0.027227         0.7409
  13   0.0000       0.090060         2.4507
  14   0.0000       0.158118         4.3026

E(0)                                       ...   -239.277336753
E(0)                                       ...   -239.277336753
E(CORR)                                    ...     -0.279799390
E(TOT)                                     ...   -239.557136143
E(CCSD(T))                                 ...   -239.563257867

MULLIKEN ATOMIC CHARGES AND SPIN DENSITIES
------------------------------------------
   0 Sb:    0.000000    3.000000
Sum of atomic charges       :    0.0000000

LOEWDIN ATOMIC CHARGES AND SPIN DENSITIES
-----------------------------------------
   0 Sb:   -0.000000    3.000000

FINAL SINGLE POINT ENERGY      -239.563257867088

DIPOLE MOMENT
-------------
                                X             Y             Z
Electronic contribution:      0.00000      -0.00000       0.00000
Nuclear contribution   :      0.00000       0.00000       0.00000
                        -----------------------------------------
Total Dipole Moment    :      0.00000      -0.00000       0.00000
                        -----------------------------------------
Magnitude (a.u.)       :      0.00000
Magnitude (Debye)      :      0.00000

Rotational constants in cm-1:     0.000000     0.000000     0.000000
Rotational constants in MHz :     0.000000     0.000000     0.000000

                             ****ORCA TERMINATED NORMALLY****
TOTAL RUN TIME: 0 days 0 hours 0 minutes 22 seconds 48 msec
