                         Program Version 4.2.0 -  RELEASE  -
|  1> # input to generate an atomic fitting density for Sb
|  2> # this file is use internally by ORCA
|  3> #
|  4> # atomic ground state (S=4): 1s2 2s2 2p6 3s2 3p6 4s2 3d10 4p6 5s2 4d10 5p3
|  5> #
|  6> ! RHF AllowRHF def2-SVP def2/J  NoMulliken NoLoewdin NoMayer NoPrintMOs
|  7>
|  8> %output print[p_atomdensfit] 2 end
|  9>
| 10> %scf
| 11>   guess hcore
| 12>   maxiter 1000
| 13>   maxdisk 500000
| 14>   SCFMode Conventional
| 15>   lshift 1.000000
| 16>   hftyp rohf
| 17>   rohf_case sahf
| 18>   rohf_numop   2
| 19>   rohf_norb[1] 3
| 20>   rohf_nel[1]  3
| 21> end
| 22>
| 23> %basis
| 24>   NewECP 51
| 25>     N_core 28
| 26>     lmax f
| 27>     s 4
| 28>       1      16.3308650000    281.0715810000  2
| 29>       2       8.5565420000     61.7166040000  2
| 30>       3      14.4449780000     15.3668010000  2
| 31>       4      14.4492950000     20.2961380000  2
| 32>     p 6
| 33>       1      14.4703370000     67.4573800000  2
| 34>       2      13.8161940000    134.9335030000  2
| 35>       3       8.4249240000     14.7163440000  2
| 36>       4       8.0927280000     29.5185120000  2
| 37>       5      14.4449780000     15.3668010000  2
| 38>       6      14.4492950000     20.2961380000  2
| 39>     d 6
| 40>       1      14.8863310000     35.4478150000  2
| 41>       2      15.1463190000     53.1434660000  2
| 42>       3       5.9082670000      9.1792230000  2
| 43>       4       5.5943220000     13.2402530000  2
| 44>       5      14.4449780000     15.3668010000  2
| 45>       6      14.4492950000     20.2961380000  2
| 46>     f 2
| 47>       1      14.4449780000    -15.3668010000  2
| 48>       2      14.4492950000    -20.2961380000  2
| 49>   end
| 50>   NewGTO 51
| 51>     s 4
| 52>      1    1612.4199933000      0.0007372999
| 53>      2     238.8445209700      0.0034600912
| 54>      3      23.9981188090     -0.1275872306
| 55>      4      15.1931242130      1.1209761019
| 56>     s 2
| 57>      1      11.7364097330      0.5460510418
| 58>      2       6.5259774794      0.4696473608
| 59>     s 1
| 60>      1       2.0247451872      1.0000000000
| 61>     s 1
| 62>      1       0.9711341859      1.0000000000
| 63>     s 1
| 64>      1       0.2425433400      1.0000000000
| 65>     s 1
| 66>      1       0.0922066082      1.0000000000
| 67>     p 3
| 68>      1     215.6839335400      0.0012613511
| 69>      2      16.3744790880      0.3569688834
| 70>      3       9.7216283345     -1.3183963636
| 71>     p 3
| 72>      1       2.7982643154      0.4267498157
| 73>      2       1.4711045033      0.4624851698
| 74>      3       0.7516538530      0.1717797266
| 75>     p 1
| 76>      1       0.3316869985      1.0000000000
| 77>     p 1
| 78>      1       0.1393160637      1.0000000000
| 79>     p 1
| 80>      1       0.0563993075      1.0000000000
| 81>     s 1
| 82>      1       0.0365774832      1.0000000000
| 83>   end
| 84>   NewAuxGTO 51
| 85>     S 1
| 86>      1 1310.72 1.0
| 87>     S 1
| 88>      1  655.36 1.0
| 89>     S 1
| 90>      1  327.68 1.0
| 91>     S 1
| 92>      1  163.84 1.0
| 93>     S 1
| 94>      1   81.82 1.0
| 95>     S 1
| 96>      1   40.96 1.0
| 97>     S 1
| 98>      1   20.48 1.0
| 99>     S 1
|100>      1   10.24 1.0
|101>     S 1
|102>      1    5.12 1.0
|103>     S 1
|104>      1    2.56 1.0
|105>     S 1
|106>      1    1.28 1.0
|107>     S 1
|108>      1    0.64 1.0
|109>     S 1
|110>      1    0.32 1.0
|111>     S 1
|112>      1    0.16 1.0
|113>     S 1
|114>      1    0.08 1.0
|115>     S 1
|116>      1    0.04 1.0
|117>     S 1
|118>      1    0.02 1.0
|119>     S 1
|120>      1    0.01 1.0
|121>   end
|122> end
|123>
|124> * xyz 0 4
|125> 51  0.0 0.0 0.0
|126> *
|127>
|128>
|129>                          ****END OF INPUT****

CARTESIAN COORDINATES (ANGSTROEM)
---------------------------------
  Sb     0.000000    0.000000    0.000000

 Total Charge           Charge          ....    0
 Multiplicity           Mult            ....    4
 Number of Electrons    NEL             ....   23
 Basis Dimension        Dim             ....   22

ORBITAL ENERGIES
----------------

  NO   OCC          E(Eh)            E(eV)
   0   2.0000     -11.191012      -304.5229
   1   2.0000      -8.880418      -241.6485
   2   2.0000      -8.880418      -241.6485
   3   2.0000      -8.875172      -241.5057
   4   2.0000      -2.928797       -79.6966
   5   2.0000      -1.890635       -51.4468
   6   2.0000      -1.890635       -51.4468
   7   2.0000      -1.874625       -51.0111
   8   2.0000      -0.553052       -15.0493
   9   2.0000      -0.264066        -7.1856
  10   1.0000      -0.317328        -8.6349
  11   1.0000      -0.317328        -8.6349
  12   1.0000      -0.071174        -1.9367
  13   0.0000       0.214616         5.8400
  14   0.0000       0.214616         5.8400
  15   0.0000       0.237141         6.4529
  16   0.0000       1.127108        30.6702
  17   0.0000      34.038215       926.2269

CleanUpVectors: The p-vectors have cracked symmetry
CleanUpVectors: The p-vectors have cracked symmetry
CleanUpVectors: The p-vectors have cracked symmetry
CleanUpVectors: The p-vectors have cracked symmetry
CleanUpVectors: The p-vectors have cracked symmetry
CleanUpVectors: The p-vectors have cracked symmetry
CleanUpVectors: The p-vectors have cracked symmetry
CleanUpVectors: The p-vectors have cracked symmetry
CleanUpVectors: The p-vectors have cracked symmetry
CleanUpVectors: The p-vectors have cracked symmetry
CleanUpVectors: The p-vectors have cracked symmetry
CleanUpVectors: The p-vectors have cracked symmetry
CleanUpVectors: The p-vectors have cracked symmetry
CleanUpVectors: The p-vectors have cracked symmetry
CleanUpVectors: The p-vectors have cracked symmetry
--------------------------
ATOM BASIS FOR ELEMENT Sb
--------------------------
 NewGTO Sb
 S 11
    1       1612.419993300000         0.000484907106
    2        238.844520970000         0.002275631411
    3         23.998118809000        -0.083911519337
    4         15.193124213000         0.737243119144
    5         11.736409733000        -0.712673717410
    6          6.525977479400        -0.612956124742
    7          2.024745187200         1.245075066615
    8          0.971134185900         0.204191261973
    9          0.242543340000         0.007590602724
   10          0.092206608200        -0.004970293320
   11          0.036577483200         0.001712537121
 P 20
    1        215.683933540000        -0.000218333203
    2         16.374479088000        -0.061789425490
    3          9.721628334500         0.228207436736
    4        215.683933540000        -0.000147888196
    5         16.374479088000        -0.041853124038
    6          9.721628334500         0.154576516618
    7        215.683933540000        -0.000017799352
    8         16.374479088000        -0.005037308516
    9          9.721628334500         0.018604336510
   10          2.798264315400        -0.411851543676
   11          1.471104503300        -0.446339340058
   12          0.751653853000        -0.165782720858
   13          2.798264315400        -0.278968020918
   14          1.471104503300        -0.302328361435
   15          0.751653853000        -0.112293078053
   16          2.798264315400        -0.033575701214
   17          1.471104503300        -0.036387277289
   18          0.751653853000        -0.013515236709
   19          0.331686998500         0.161330943246
   20          0.331686998500         0.109277662404
 S 11
    1       1612.419993300000         0.000382677810
    2        238.844520970000         0.001795877260
    3         23.998118809000        -0.066221088654
    4         15.193124213000         0.581815730885
    5         11.736409733000        -0.586716889663
    6          6.525977479400        -0.504623226903
    7          2.024745187200         1.993267776149
    8          0.971134185900        -1.013748035351
    9          0.242543340000        -1.107911256203
   10          0.092206608200         0.386957245755
   11          0.036577483200        -0.118069235014
 P 20
    1        215.683933540000        -0.000061969660
    2         16.374479088000        -0.017537734345
    3          9.721628334500         0.064772270811
    4        215.683933540000        -0.000069620643
    5         16.374479088000        -0.019703002041
    6          9.721628334500         0.072769273318
    7        215.683933540000        -0.000052962666
    8         16.374479088000        -0.014988708208
    9          9.721628334500         0.055357929823
   10          2.798264315400        -0.162908457724
   11          1.471104503300        -0.176550154119
   12          0.751653853000        -0.065575588551
   13          2.798264315400        -0.183021684087
   14          1.471104503300        -0.198347630223
   15          0.751653853000        -0.073671771370
   16          2.798264315400        -0.139230489489
   17          1.471104503300        -0.150889430302
   18          0.751653853000        -0.056044489157
   19          0.331686998500         0.875407880412
   20          0.331686998500         0.983488683001
 S 11
    1       1612.419993300000         0.000530873979
    2        238.844520970000         0.002491350374
    3         23.998118809000        -0.091865929635
    4         15.193124213000         0.807130237211
    5         11.736409733000        -0.819984045876
    6          6.525977479400        -0.705251548966
    7          2.024745187200         4.098232982436
    8          0.971134185900        -5.107315362963
    9          0.242543340000         4.181912230638
   10          0.092206608200        -3.421048926746
   11          0.036577483200         1.249241159172
 S 11
    1       1612.419993300000         0.003274170349
    2        238.844520970000         0.015365427299
    3         23.998118809000        -0.566584001031
    4         15.193124213000         4.977983469725
    5         11.736409733000        -3.467401464870
    6          6.525977479400        -2.982241259795
    7          2.024745187200         3.506449139514
    8          0.971134185900        -2.353857532011
    9          0.242543340000         0.889382538629
   10          0.092206608200        -0.554706909412
   11          0.036577483200         0.184289441349
 S 11
    1       1612.419993300000         0.002643601671
    2        238.844520970000         0.012406217441
    3         23.998118809000        -0.457466244089
    4         15.193124213000         4.019279395267
    5         11.736409733000        -1.791045020632
    6          6.525977479400        -1.540441282267
    7          2.024745187200         1.180555606363
    8          0.971134185900        -0.725871619365
    9          0.242543340000         0.260678317766
   10          0.092206608200        -0.161596166747
   11          0.036577483200         0.053653054691
 P 20
    1        215.683933540000         0.000070804405
    2         16.374479088000         0.020038012841
    3          9.721628334500        -0.074006571698
    4        215.683933540000        -0.000001805452
    5         16.374479088000        -0.000510952266
    6          9.721628334500         0.001887104566
    7        215.683933540000        -0.000080472314
    8         16.374479088000        -0.022774080844
    9          9.721628334500         0.084111716077
   10          2.798264315400         0.186133607883
   11          1.471104503300         0.201720141592
   12          0.751653853000         0.074924414954
   13          2.798264315400        -0.004746248518
   14          1.471104503300        -0.005143691857
   15          0.751653853000        -0.001910508787
   16          2.798264315400        -0.211549012734
   17          1.471104503300        -0.229263792217
   18          0.751653853000        -0.085154885212
   19          0.331686998500        -1.000210973862
   20          0.331686998500         0.025504528207
 P 20
    1        215.683933540000        -0.000006703018
    2         16.374479088000        -0.001896988784
    3          9.721628334500         0.007006165608
    4        215.683933540000        -0.000022685112
    5         16.374479088000        -0.006420004110
    6          9.721628334500         0.023711058488
    7        215.683933540000        -0.000031992159
    8         16.374479088000        -0.009053946500
    9          9.721628334500         0.033439021429
   10          2.798264315400        -0.019056856924
   11          1.471104503300        -0.020652647959
   12          0.751653853000        -0.007670962123
   13          2.798264315400        -0.064494371725
   14          1.471104503300        -0.069895028330
   15          0.751653853000        -0.025960938082
   16          2.798264315400        -0.090954550983
   17          1.471104503300        -0.098570941118
   18          0.751653853000        -0.036611961684
   19          0.331686998500         0.179306310177
   20          0.331686998500         0.606828705672
 P 20
    1        215.683933540000        -0.000034642002
    2         16.374479088000        -0.009803865582
    3          9.721628334500         0.036208704270
    4        215.683933540000        -0.000024414000
    5         16.374479088000        -0.006909288282
    6          9.721628334500         0.025518136090
    7        215.683933540000        -0.000004469164
    8         16.374479088000        -0.001264796648
    9          9.721628334500         0.004671284749
   10          2.798264315400        -0.099764653974
   11          1.471104503300        -0.108118788188
   12          0.751653853000        -0.040158294986
   13          2.798264315400        -0.070309282489
   14          1.471104503300        -0.076196870518
   15          0.751653853000        -0.028301615792
   16          2.798264315400        -0.012870637490
   17          1.471104503300        -0.013948404301
   18          0.751653853000        -0.005180821427
   19          0.331686998500         1.251287100278
   20          0.331686998500         0.881846372476
 P 20
    1        215.683933540000        -0.001142800907
    2         16.374479088000        -0.323418565873
    3          9.721628334500         1.194484676387
    4        215.683933540000        -0.000934375120
    5         16.374479088000        -0.264432990362
    6          9.721628334500         0.976632723806
    7        215.683933540000        -0.000370968192
    8         16.374479088000        -0.104985916412
    9          9.721628334500         0.387745422259
   10          2.798264315400        -0.202224038315
   11          1.471104503300        -0.219157959199
   12          0.751653853000        -0.081401300564
   13          2.798264315400        -0.165342107155
   14          1.471104503300        -0.179187593502
   15          0.751653853000        -0.066555206160
   16          2.798264315400        -0.065644580192
   17          1.471104503300        -0.071141553434
   18          0.751653853000        -0.026423931829
   19          0.331686998500         0.351861309088
   20          0.331686998500         0.287688302320
 end
  // -----------------------------------------------
  // The basis set
  // -----------------------------------------------
  BAS[ATNO] = new BFNGauss[NSH];
  // Basis function   1 L = s
  InitBFNGauss(BAS[ATNO][  0]);
  BAS[ATNO][  0].l  = 0;
  BAS[ATNO][  0].ng = 11;
  BAS[ATNO][  0].a[  0] =      1612.419993300000;     BAS[ATNO][  0].d[  0] =         0.000484907106;
  BAS[ATNO][  0].a[  1] =       238.844520970000;     BAS[ATNO][  0].d[  1] =         0.002275631411;
  BAS[ATNO][  0].a[  2] =        23.998118809000;     BAS[ATNO][  0].d[  2] =        -0.083911519337;
  BAS[ATNO][  0].a[  3] =        15.193124213000;     BAS[ATNO][  0].d[  3] =         0.737243119144;
  BAS[ATNO][  0].a[  4] =        11.736409733000;     BAS[ATNO][  0].d[  4] =        -0.712673717410;
  BAS[ATNO][  0].a[  5] =         6.525977479400;     BAS[ATNO][  0].d[  5] =        -0.612956124742;
  BAS[ATNO][  0].a[  6] =         2.024745187200;     BAS[ATNO][  0].d[  6] =         1.245075066615;
  BAS[ATNO][  0].a[  7] =         0.971134185900;     BAS[ATNO][  0].d[  7] =         0.204191261973;
  BAS[ATNO][  0].a[  8] =         0.242543340000;     BAS[ATNO][  0].d[  8] =         0.007590602724;
  BAS[ATNO][  0].a[  9] =         0.092206608200;     BAS[ATNO][  0].d[  9] =        -0.004970293320;
  BAS[ATNO][  0].a[ 10] =         0.036577483200;     BAS[ATNO][  0].d[ 10] =         0.001712537121;

FINAL SINGLE POINT ENERGY      -210.331936541662

DIPOLE MOMENT
-------------
                                X             Y             Z
Electronic contribution:     -0.00000      -0.00000      -0.00000
Nuclear contribution   :      0.00000       0.00000       0.00000
                        -----------------------------------------
Total Dipole Moment    :     -0.00000      -0.00000      -0.00000
                        -----------------------------------------
Magnitude (a.u.)       :      0.00000
Magnitude (Debye)      :      0.00000

Rotational constants in cm-1:     0.000000     0.000000     0.000000
Rotational constants in MHz :     0.000000     0.000000     0.000000

                             ****ORCA TERMINATED NORMALLY****
TOTAL RUN TIME: 0 days 0 hours 0 minutes 1 seconds 23 msec
