                         Program Version 4.2.0 -  RELEASE  -
|  1> #
|  2> # 52_Te CCSD(T)/Def2-TZVPPD
|  3> #
|  4> ! CCSD(T) Def2-TZVPPD tightscf
|  5>
|  6> *xyz 0 3
|  7>  Te 0.0 0.0 0.0
|  8> *
|  9>
| 10> %maxcore 5000
| 11>
| 12> %pal
| 13> nprocs 24
| 14> end
| 15>
| 16>
| 17>                          ****END OF INPUT****

CARTESIAN COORDINATES (ANGSTROEM)
---------------------------------
  Te     0.000000    0.000000    0.000000

 Total Charge           Charge          ....    0
 Multiplicity           Mult            ....    3
 Number of Electrons    NEL             ....   24
 Basis Dimension        Dim             ....   59

ORBITAL ENERGIES
----------------
                 SPIN UP ORBITALS
  NO   OCC          E(Eh)            E(eV)
   0   1.0000      -7.136879      -194.2043
   1   1.0000      -5.108782      -139.0170
   2   1.0000      -5.108782      -139.0170
   3   1.0000      -5.089467      -138.4914
   4   1.0000      -1.967163       -53.5292
   5   1.0000      -1.967163       -53.5292
   6   1.0000      -1.951337       -53.0986
   7   1.0000      -1.951337       -53.0986
   8   1.0000      -1.946203       -52.9589
   9   1.0000      -0.831271       -22.6200
  10   1.0000      -0.398217       -10.8360
  11   1.0000      -0.398217       -10.8360
  12   1.0000      -0.342872        -9.3300
  13   0.0000       0.052264         1.4222
  14   0.0000       0.052264         1.4222
  15   0.0000       0.057586         1.5670
  16   0.0000       0.076682         2.0866
  17   0.0000       0.137107         3.7309

                 SPIN DOWN ORBITALS
  NO   OCC          E(Eh)            E(eV)
   0   1.0000      -7.125178      -193.8859
   1   1.0000      -5.091528      -138.5475
   2   1.0000      -5.091528      -138.5475
   3   1.0000      -5.088766      -138.4724
   4   1.0000      -1.952134       -53.1203
   5   1.0000      -1.952134       -53.1203
   6   1.0000      -1.943742       -52.8919
   7   1.0000      -1.943742       -52.8919
   8   1.0000      -1.941115       -52.8204
   9   1.0000      -0.665652       -18.1133
  10   1.0000      -0.311109        -8.4657
  11   0.0000      -0.013603        -0.3702
  12   0.0000      -0.013603        -0.3702
  13   0.0000       0.058405         1.5893
  14   0.0000       0.065069         1.7706
  15   0.0000       0.065069         1.7706

E(0)                                       ...   -267.005646393
E(0)                                       ...   -267.005646393
E(CORR)                                    ...     -0.395149670
E(TOT)                                     ...   -267.400796063
E(CCSD(T))                                 ...   -267.407292978

MULLIKEN ATOMIC CHARGES AND SPIN DENSITIES
------------------------------------------
   0 Te:   -0.000000    2.000000
Sum of atomic charges       :   -0.0000000

LOEWDIN ATOMIC CHARGES AND SPIN DENSITIES
-----------------------------------------
   0 Te:   -0.000000    2.000000

FINAL SINGLE POINT ENERGY      -267.407292977799

DIPOLE MOMENT
-------------
                                X             Y             Z
Electronic contribution:      0.00000       0.00000       0.00000
Nuclear contribution   :      0.00000       0.00000       0.00000
                        -----------------------------------------
Total Dipole Moment    :      0.00000       0.00000       0.00000
                        -----------------------------------------
Magnitude (a.u.)       :      0.00000
Magnitude (Debye)      :      0.00000

Rotational constants in cm-1:     0.000000     0.000000     0.000000
Rotational constants in MHz :     0.000000     0.000000     0.000000

                             ****ORCA TERMINATED NORMALLY****
TOTAL RUN TIME: 0 days 0 hours 0 minutes 13 seconds 282 msec
