                         Program Version 4.2.0 -  RELEASE  -
|  1> # input to generate an atomic fitting density for Te
|  2> # this file is use internally by ORCA
|  3> #
|  4> # atomic ground state (S=3): 1s2 2s2 2p6 3s2 3p6 4s2 3d10 4p6 5s2 4d10 5p4
|  5> #
|  6> ! RHF AllowRHF def2-SVP def2/J  NoMulliken NoLoewdin NoMayer NoPrintMOs
|  7>
|  8> %output print[p_atomdensfit] 2 end
|  9>
| 10> %scf
| 11>   guess hcore
| 12>   maxiter 1000
| 13>   maxdisk 500000
| 14>   SCFMode Conventional
| 15>   lshift 1.000000
| 16>   hftyp rohf
| 17>   rohf_case sahf
| 18>   rohf_numop   2
| 19>   rohf_norb[1] 3
| 20>   rohf_nel[1]  4
| 21> end
| 22>
| 23> %basis
| 24>   NewECP 52
| 25>     N_core 28
| 26>     lmax f
| 27>     s 4
| 28>       1      16.8144730000    281.0458430000  2
| 29>       2       8.7935260000     61.6206560000  2
| 30>       3      15.2061680000     15.7454500000  2
| 31>       4      15.2017020000     20.7424480000  2
| 32>     p 6
| 33>       1      14.8778010000     67.4494640000  2
| 34>       2      14.2697310000    134.9043040000  2
| 35>       3       8.7244350000     14.6895470000  2
| 36>       4       8.2915150000     29.4150630000  2
| 37>       5      15.2061680000     15.7454500000  2
| 38>       6      15.2017020000     20.7424480000  2
| 39>     d 6
| 40>       1      15.2050080000     35.4320570000  2
| 41>       2      15.2258480000     53.1356870000  2
| 42>       3       6.0717690000      9.0698020000  2
| 43>       4       5.8047600000     13.1223040000  2
| 44>       5      15.2061680000     15.7454500000  2
| 45>       6      15.2017020000     20.7424480000  2
| 46>     f 2
| 47>       1      15.2061680000    -15.7454500000  2
| 48>       2      15.2017020000    -20.7424480000  2
| 49>   end
| 50>   NewGTO 52
| 51>     s 5
| 52>      1    6213.2001650000      0.0001923679
| 53>      2     920.8964001700      0.0013199349
| 54>      3     199.2804270800      0.0040102177
| 55>      4      24.7742330980     -0.0661328816
| 56>      5      14.8381991690      1.0611959986
| 57>     s 2
| 58>      1      12.2787619540      0.6939918986
| 59>      2       6.3807845532      0.3228749241
| 60>     s 1
| 61>      1       2.2228405205      1.0000000000
| 62>     s 1
| 63>      1       1.0776043442      1.0000000000
| 64>     s 1
| 65>      1       0.2813664902      1.0000000000
| 66>     s 1
| 67>      1       0.1078157334      1.0000000000
| 68>     p 3
| 69>      1     204.2940085200      0.0018228733
| 70>      2      18.2087593580      0.2705010304
| 71>      3       9.9211024302     -1.2341664049
| 72>     p 3
| 73>      1       3.1441528685      0.3724115709
| 74>      2       1.7220884031      0.4781095923
| 75>      3       0.8909894571      0.2078652439
| 76>     p 1
| 77>      1       0.3980471957      1.0000000000
| 78>     p 1
| 79>      1       0.1653878524      1.0000000000
| 80>     p 1
| 81>      1       0.0650826956      1.0000000000
| 82>     s 1
| 83>      1       0.0376069371      1.0000000000
| 84>     p 1
| 85>      1       0.0204347387      1.0000000000
| 86>   end
| 87>   NewAuxGTO 52
| 88>     S 1
| 89>      1 1310.72 1.0
| 90>     S 1
| 91>      1  655.36 1.0
| 92>     S 1
| 93>      1  327.68 1.0
| 94>     S 1
| 95>      1  163.84 1.0
| 96>     S 1
| 97>      1   81.82 1.0
| 98>     S 1
| 99>      1   40.96 1.0
|100>     S 1
|101>      1   20.48 1.0
|102>     S 1
|103>      1   10.24 1.0
|104>     S 1
|105>      1    5.12 1.0
|106>     S 1
|107>      1    2.56 1.0
|108>     S 1
|109>      1    1.28 1.0
|110>     S 1
|111>      1    0.64 1.0
|112>     S 1
|113>      1    0.32 1.0
|114>     S 1
|115>      1    0.16 1.0
|116>     S 1
|117>      1    0.08 1.0
|118>     S 1
|119>      1    0.04 1.0
|120>     S 1
|121>      1    0.02 1.0
|122>     S 1
|123>      1    0.01 1.0
|124>   end
|125> end
|126>
|127> * xyz 0 3
|128> 52  0.0 0.0 0.0
|129> *
|130>
|131>
|132>                          ****END OF INPUT****

CARTESIAN COORDINATES (ANGSTROEM)
---------------------------------
  Te     0.000000    0.000000    0.000000

 Total Charge           Charge          ....    0
 Multiplicity           Mult            ....    3
 Number of Electrons    NEL             ....   24
 Basis Dimension        Dim             ....   25

ORBITAL ENERGIES
----------------

  NO   OCC          E(Eh)            E(eV)
   0   2.0000     -12.111726      -329.5768
   1   2.0000      -9.696827      -263.8641
   2   2.0000      -9.696827      -263.8641
   3   2.0000      -9.692679      -263.7512
   4   2.0000      -3.260511       -88.7230
   5   2.0000      -2.189109       -59.5687
   6   2.0000      -2.189109       -59.5687
   7   2.0000      -2.177619       -59.2560
   8   2.0000      -0.648950       -17.6588
   9   2.0000      -0.334328        -9.0975
  10   1.3333      -0.355269        -9.6674
  11   1.3333      -0.355269        -9.6674
  12   1.3333      -0.077644        -2.1128
  13   0.0000       0.018675         0.5082
  14   0.0000       0.018675         0.5082
  15   0.0000       0.023757         0.6464
  16   0.0000       0.300255         8.1703
  17   0.0000       0.300255         8.1703

CleanUpVectors: The p-vectors have cracked symmetry
CleanUpVectors: The p-vectors have cracked symmetry
CleanUpVectors: The p-vectors have cracked symmetry
CleanUpVectors: The p-vectors have cracked symmetry
CleanUpVectors: The p-vectors have cracked symmetry
CleanUpVectors: The p-vectors have cracked symmetry
CleanUpVectors: The p-vectors have cracked symmetry
CleanUpVectors: The p-vectors have cracked symmetry
CleanUpVectors: The p-vectors have cracked symmetry
CleanUpVectors: The p-vectors have cracked symmetry
CleanUpVectors: The p-vectors have cracked symmetry
CleanUpVectors: The p-vectors have cracked symmetry
CleanUpVectors: The p-vectors have cracked symmetry
CleanUpVectors: The p-vectors have cracked symmetry
CleanUpVectors: The p-vectors have cracked symmetry
CleanUpVectors: The p-vectors have cracked symmetry
CleanUpVectors: The p-vectors have cracked symmetry
CleanUpVectors: The p-vectors have cracked symmetry
--------------------------
ATOM BASIS FOR ELEMENT Te
--------------------------
 NewGTO Te
 S 12
    1       6213.200165000000         0.000197195726
    2        920.896400170000         0.001353061093
    3        199.280427080000         0.004110861486
    4         24.774233098000        -0.067792607842
    5         14.838199169000         1.087828663087
    6         12.278761954000        -1.175133640399
    7          6.380784553200        -0.546722786990
    8          2.222840520500         1.244737794281
    9          1.077604344200         0.237615072495
   10          0.281366490200         0.006500779696
   11          0.107815733400        -0.003784778004
   12          0.037606937100         0.001132425342
 P 22
    1        204.294008520000        -0.000006288063
    2         18.208759358000        -0.000933102451
    3          9.921102430200         0.004257298743
    4        204.294008520000        -0.000363505053
    5         18.208759358000        -0.053941484212
    6          9.921102430200         0.246109109259
    7        204.294008520000         0.000148923631
    8         18.208759358000         0.022099174841
    9          9.921102430200        -0.100827930765
   10          3.144152868500        -0.007045147450
   11          1.722088403100        -0.009044704403
   12          0.890989457100        -0.003932319529
   13          3.144152868500        -0.407271151985
   14          1.722088403100        -0.522863035541
   15          0.890989457100        -0.227322467818
   16          3.144152868500         0.166854073946
   17          1.722088403100         0.214210673087
   18          0.890989457100         0.093131270580
   19          0.398047195700         0.003187389395
   20          0.398047195700         0.184258989605
   21          0.398047195700        -0.075488683465
   22          0.165387852400        -0.002027382010
 S 12
    1       6213.200165000000         0.000161573444
    2        920.896400170000         0.001108638332
    3        199.280427080000         0.003368257831
    4         24.774233098000        -0.055546260327
    5         14.838199169000         0.891318626524
    6         12.278761954000        -0.991966080832
    7          6.380784553200        -0.461505348556
    8          2.222840520500         2.030502837877
    9          1.077604344200        -0.951724702057
   10          0.281366490200        -1.136477718222
   11          0.107815733400         0.344027008877
   12          0.037606937100        -0.091891280123
 P 22
    1        204.294008520000        -0.000004477034
    2         18.208759358000        -0.000664358973
    3          9.921102430200         0.003031151210
    4        204.294008520000         0.000012261480
    5         18.208759358000         0.001819513661
    6          9.921102430200        -0.008301567760
    7        204.294008520000        -0.000172817056
    8         18.208759358000        -0.025644783789
    9          9.921102430200         0.117004843075
   10          3.144152868500        -0.007062760287
   11          1.722088403100        -0.009067316123
   12          0.890989457100        -0.003942150310
   13          3.144152868500         0.019343140292
   14          1.722088403100         0.024833119166
   15          0.890989457100         0.010796567263
   16          3.144152868500        -0.272628154089
   17          1.722088403100        -0.350005600755
   18          0.890989457100        -0.152170131575
   19          0.398047195700         0.039421920235
   20          0.398047195700        -0.107966815056
   21          0.398047195700         1.521717417473
   22          0.165387852400        -0.011771971023
 S 12
    1       6213.200165000000         0.000236536200
    2        920.896400170000         0.001622996275
    3        199.280427080000         0.004930976815
    4         24.774233098000        -0.081317207762
    5         14.838199169000         1.304850074670
    6         12.278761954000        -1.459097614020
    7          6.380784553200        -0.678835058927
    8          2.222840520500         4.446439304117
    9          1.077604344200        -5.459143899823
   10          0.281366490200         4.234470439770
   11          0.107815733400        -3.122193279874
   12          0.037606937100         1.011913878768
 P 22
    1        204.294008520000        -0.000054990920
    2         18.208759358000        -0.008160249285
    3          9.921102430200         0.037231301886
    4        204.294008520000         0.000262458854
    5         18.208759358000         0.038946969323
    6          9.921102430200        -0.177696332765
    7        204.294008520000        -0.002237754161
    8         18.208759358000        -0.332066307764
    9          9.921102430200         1.515059224122
   10          3.144152868500        -0.006472343657
   11          1.722088403100        -0.008309327177
   12          0.890989457100        -0.003612603361
   13          3.144152868500         0.030890988871
   14          1.722088403100         0.039658483380
   15          0.890989457100         0.017242114472
   16          3.144152868500        -0.263380098528
   17          1.722088403100        -0.338132757859
   18          0.890989457100        -0.147008236846
   19          0.398047195700         0.013642032132
   20          0.398047195700        -0.065110242149
   21          0.398047195700         0.555137359433
   22          0.165387852400        -0.010531443365
 P 22
    1        204.294008520000        -0.000005306453
    2         18.208759358000        -0.000787438681
    3          9.921102430200         0.003592704860
    4        204.294008520000        -0.000172803345
    5         18.208759358000        -0.025642749200
    6          9.921102430200         0.116995560220
    7        204.294008520000        -0.000012123037
    8         18.208759358000        -0.001798969759
    9          9.921102430200         0.008207835795
   10          3.144152868500        -0.008371213263
   11          1.722088403100        -0.010747134818
   12          0.890989457100        -0.004672476428
   13          3.144152868500        -0.272606524493
   14          1.722088403100        -0.349977832237
   15          0.890989457100        -0.152158058799
   16          3.144152868500        -0.019124739309
   17          1.722088403100        -0.024552731517
   18          0.890989457100        -0.010674664569
   19          0.398047195700         0.046725258697
   20          0.398047195700         1.521596688441
   21          0.398047195700         0.106747775220
   22          0.165387852400        -0.013952856384
 P 22
    1        204.294008520000        -0.000001921741
    2         18.208759358000        -0.000285172324
    3          9.921102430200         0.001301104477
    4        204.294008520000        -0.000000954954
    5         18.208759358000        -0.000141708131
    6          9.921102430200         0.000646546206
    7        204.294008520000        -0.000067784247
    8         18.208759358000        -0.010058685142
    9          9.921102430200         0.045892953757
   10          3.144152868500        -0.003305321806
   11          1.722088403100        -0.004243439744
   12          0.890989457100        -0.001844898432
   13          3.144152868500        -0.001642483990
   14          1.722088403100        -0.002108654543
   15          0.890989457100        -0.000916768871
   16          3.144152868500        -0.116586318376
   17          1.722088403100        -0.149675900273
   18          0.890989457100        -0.065073819930
   19          0.398047195700         0.032044989593
   20          0.398047195700         0.015923829952
   21          0.398047195700         1.130300641985
   22          0.165387852400        -0.030350386886
 P 22
    1        204.294008520000        -0.000000591384
    2         18.208759358000        -0.000087757098
    3          9.921102430200         0.000400393528
    4        204.294008520000        -0.000020280664
    5         18.208759358000        -0.003009501788
    6          9.921102430200         0.013730912582
    7        204.294008520000        -0.000000299363
    8         18.208759358000        -0.000044423235
    9          9.921102430200         0.000202681905
   10          3.144152868500        -0.001031567195
   11          1.722088403100        -0.001324347065
   12          0.890989457100        -0.000575779550
   13          3.144152868500        -0.035376093725
   14          1.722088403100        -0.045416552733
   15          0.890989457100        -0.019745520615
   16          3.144152868500        -0.000522186273
   17          1.722088403100        -0.000670393419
   18          0.890989457100        -0.000291463492
   19          0.398047195700         0.009993923425
   20          0.398047195700         0.342727040532
   21          0.398047195700         0.005058991459
   22          0.165387852400        -0.006904632490
 P 22
    1        204.294008520000        -0.000002004762
    2         18.208759358000        -0.000297491954
    3          9.921102430200         0.001357313039
    4        204.294008520000         0.000000344504
    5         18.208759358000         0.000051121916
    6          9.921102430200        -0.000233244772
    7        204.294008520000        -0.000072091742
    8         18.208759358000        -0.010697885887
    9          9.921102430200         0.048809320043
   10          3.144152868500        -0.003508437928
   11          1.722088403100        -0.004504204376
   12          0.890989457100        -0.001958269728
   13          3.144152868500         0.000602900571
   14          1.722088403100         0.000774016085
   15          0.890989457100         0.000336514985
   16          3.144152868500        -0.126164314908
   17          1.722088403100        -0.161972328136
   18          0.890989457100        -0.070419874513
   19          0.398047195700         0.046073682357
   20          0.398047195700        -0.007917440745
   21          0.398047195700         1.656821266201
   22          0.165387852400        -0.087928330989
 P 22
    1        204.294008520000        -0.002251985477
    2         18.208759358000        -0.334178130749
    3          9.921102430200         1.524694459066
    4        204.294008520000         0.000064738953
    5         18.208759358000         0.009606785824
    6          9.921102430200        -0.043831154011
    7        204.294008520000         0.000062933662
    8         18.208759358000         0.009338893988
    9          9.921102430200        -0.042608892108
   10          3.144152868500        -0.265094047875
   11          1.722088403100        -0.340333161089
   12          0.890989457100        -0.147964894820
   13          3.144152868500         0.007620791150
   14          1.722088403100         0.009783727559
   15          0.890989457100         0.004253620819
   16          3.144152868500         0.007408280142
   17          1.722088403100         0.009510901581
   18          0.890989457100         0.004135005674
   19          0.398047195700         0.558865092030
   20          0.398047195700        -0.016065974251
   21          0.398047195700        -0.015617963499
   22          0.165387852400        -0.431452318773
 end
  // -----------------------------------------------
  // The basis set
  // -----------------------------------------------
  BAS[ATNO] = new BFNGauss[NSH];
  // Basis function   1 L = s
  InitBFNGauss(BAS[ATNO][  0]);
  BAS[ATNO][  0].l  = 0;
  BAS[ATNO][  0].ng = 12;
  BAS[ATNO][  0].a[  0] =      6213.200165000000;     BAS[ATNO][  0].d[  0] =         0.000197195726;
  BAS[ATNO][  0].a[  1] =       920.896400170000;     BAS[ATNO][  0].d[  1] =         0.001353061093;
  BAS[ATNO][  0].a[  2] =       199.280427080000;     BAS[ATNO][  0].d[  2] =         0.004110861486;
  BAS[ATNO][  0].a[  3] =        24.774233098000;     BAS[ATNO][  0].d[  3] =        -0.067792607842;
  BAS[ATNO][  0].a[  4] =        14.838199169000;     BAS[ATNO][  0].d[  4] =         1.087828663087;
  BAS[ATNO][  0].a[  5] =        12.278761954000;     BAS[ATNO][  0].d[  5] =        -1.175133640399;
  BAS[ATNO][  0].a[  6] =         6.380784553200;     BAS[ATNO][  0].d[  6] =        -0.546722786990;
  BAS[ATNO][  0].a[  7] =         2.222840520500;     BAS[ATNO][  0].d[  7] =         1.244737794281;
  BAS[ATNO][  0].a[  8] =         1.077604344200;     BAS[ATNO][  0].d[  8] =         0.237615072495;
  BAS[ATNO][  0].a[  9] =         0.281366490200;     BAS[ATNO][  0].d[  9] =         0.006500779696;
  BAS[ATNO][  0].a[ 10] =         0.107815733400;     BAS[ATNO][  0].d[ 10] =        -0.003784778004;
  BAS[ATNO][  0].a[ 11] =         0.037606937100;     BAS[ATNO][  0].d[ 11] =         0.001132425342;

FINAL SINGLE POINT ENERGY      -232.961498718430

DIPOLE MOMENT
-------------
                                X             Y             Z
Electronic contribution:      0.00000       0.00000       0.00000
Nuclear contribution   :      0.00000       0.00000       0.00000
                        -----------------------------------------
Total Dipole Moment    :      0.00000       0.00000       0.00000
                        -----------------------------------------
Magnitude (a.u.)       :      0.00000
Magnitude (Debye)      :      0.00000

Rotational constants in cm-1:     0.000000     0.000000     0.000000
Rotational constants in MHz :     0.000000     0.000000     0.000000

                             ****ORCA TERMINATED NORMALLY****
TOTAL RUN TIME: 0 days 0 hours 0 minutes 0 seconds 983 msec
