                         Program Version 4.2.0 -  RELEASE  -
|  1> #
|  2> # 53_I CCSD(T)/Def2-TZVPPD
|  3> #
|  4> ! CCSD(T) Def2-TZVPPD tightscf
|  5>
|  6> *xyz 0 2
|  7>  I 0.0 0.0 0.0
|  8> *
|  9>
| 10> %maxcore 5000
| 11>
| 12> %pal
| 13> nprocs 24
| 14> end
| 15>
| 16>
| 17>                          ****END OF INPUT****

CARTESIAN COORDINATES (ANGSTROEM)
---------------------------------
  I      0.000000    0.000000    0.000000

 Total Charge           Charge          ....    0
 Multiplicity           Mult            ....    2
 Number of Electrons    NEL             ....   25
 Basis Dimension        Dim             ....   59

ORBITAL ENERGIES
----------------
                 SPIN UP ORBITALS
  NO   OCC          E(Eh)            E(eV)
   0   1.0000      -7.763012      -211.2423
   1   1.0000      -5.625583      -153.0799
   2   1.0000      -5.603335      -152.4745
   3   1.0000      -5.603335      -152.4745
   4   1.0000      -2.315995       -63.0214
   5   1.0000      -2.309930       -62.8564
   6   1.0000      -2.309930       -62.8564
   7   1.0000      -2.292081       -62.3707
   8   1.0000      -2.292081       -62.3707
   9   1.0000      -0.922996       -25.1160
  10   1.0000      -0.460113       -12.5203
  11   1.0000      -0.400026       -10.8853
  12   1.0000      -0.400026       -10.8853
  13   0.0000       0.054243         1.4760
  14   0.0000       0.059329         1.6144
  15   0.0000       0.059329         1.6144
  16   0.0000       0.090244         2.4557
  17   0.0000       0.155705         4.2369

                 SPIN DOWN ORBITALS
  NO   OCC          E(Eh)            E(eV)
   0   1.0000      -7.755439      -211.0362
   1   1.0000      -5.604844      -152.5155
   2   1.0000      -5.602310      -152.4466
   3   1.0000      -5.602310      -152.4466
   4   1.0000      -2.304228       -62.7012
   5   1.0000      -2.301016       -62.6138
   6   1.0000      -2.301016       -62.6138
   7   1.0000      -2.291799       -62.3630
   8   1.0000      -2.291799       -62.3630
   9   1.0000      -0.832986       -22.6667
  10   1.0000      -0.382418       -10.4061
  11   1.0000      -0.382418       -10.4061
  12   0.0000      -0.053103        -1.4450
  13   0.0000       0.059690         1.6242
  14   0.0000       0.059690         1.6242
  15   0.0000       0.062828         1.7096
  16   0.0000       0.095829         2.6076

E(0)                                       ...   -296.658628541
E(0)                                       ...   -296.658628541
E(CORR)                                    ...     -0.447159307
E(TOT)                                     ...   -297.105787848
E(CCSD(T))                                 ...   -297.113010075

MULLIKEN ATOMIC CHARGES AND SPIN DENSITIES
------------------------------------------
   0 I :   -0.000000    1.000000
Sum of atomic charges       :   -0.0000000

LOEWDIN ATOMIC CHARGES AND SPIN DENSITIES
-----------------------------------------
   0 I :    0.000000    1.000000

FINAL SINGLE POINT ENERGY      -297.113010075249

DIPOLE MOMENT
-------------
                                X             Y             Z
Electronic contribution:     -0.00000       0.00000       0.00000
Nuclear contribution   :      0.00000       0.00000       0.00000
                        -----------------------------------------
Total Dipole Moment    :     -0.00000       0.00000       0.00000
                        -----------------------------------------
Magnitude (a.u.)       :      0.00000
Magnitude (Debye)      :      0.00000

Rotational constants in cm-1:     0.000000     0.000000     0.000000
Rotational constants in MHz :     0.000000     0.000000     0.000000

                             ****ORCA TERMINATED NORMALLY****
TOTAL RUN TIME: 0 days 0 hours 0 minutes 23 seconds 566 msec
