                         Program Version 4.2.0 -  RELEASE  -
|  1> #
|  2> # 54_Xe CCSD(T)/Def2-TZVPPD
|  3> #
|  4> ! CCSD(T) Def2-TZVPPD tightscf
|  5>
|  6> *xyz 0 1
|  7>  Xe 0.0 0.0 0.0
|  8> *
|  9>
| 10> %maxcore 5000
| 11>
| 12> %pal
| 13> nprocs 24
| 14> end
| 15>
| 16>
| 17>                          ****END OF INPUT****

CARTESIAN COORDINATES (ANGSTROEM)
---------------------------------
  Xe     0.000000    0.000000    0.000000

 Total Charge           Charge          ....    0
 Multiplicity           Mult            ....    1
 Number of Electrons    NEL             ....   26
 Basis Dimension        Dim             ....   59

ORBITAL ENERGIES
----------------

  NO   OCC          E(Eh)            E(eV)
   0   2.0000      -8.400178      -228.5805
   1   2.0000      -6.133888      -166.9116
   2   2.0000      -6.133888      -166.9116
   3   2.0000      -6.133888      -166.9116
   4   2.0000      -2.664224       -72.4972
   5   2.0000      -2.664224       -72.4972
   6   2.0000      -2.664224       -72.4972
   7   2.0000      -2.664224       -72.4972
   8   2.0000      -2.664224       -72.4972
   9   2.0000      -1.009638       -27.4737
  10   2.0000      -0.456358       -12.4181
  11   2.0000      -0.456358       -12.4181
  12   2.0000      -0.456358       -12.4181
  13   0.0000       0.063638         1.7317
  14   0.0000       0.063638         1.7317
  15   0.0000       0.063638         1.7317
  16   0.0000       0.106771         2.9054
  17   0.0000       0.181185         4.9303

E(0)                                       ...   -328.298441427
E(0)                                       ...   -328.298441427
E(CORR)                                    ...     -0.495744305
E(TOT)                                     ...   -328.794185732
E(CCSD(T))                                 ...   -328.802234952

MULLIKEN ATOMIC CHARGES
-----------------------
   0 Xe:    0.000000
Sum of atomic charges:    0.0000000

LOEWDIN ATOMIC CHARGES
----------------------
   0 Xe:    0.000000

FINAL SINGLE POINT ENERGY      -328.802234952171

DIPOLE MOMENT
-------------
                                X             Y             Z
Electronic contribution:     -0.00000      -0.00000      -0.00000
Nuclear contribution   :      0.00000       0.00000       0.00000
                        -----------------------------------------
Total Dipole Moment    :     -0.00000      -0.00000      -0.00000
                        -----------------------------------------
Magnitude (a.u.)       :      0.00000
Magnitude (Debye)      :      0.00000

Rotational constants in cm-1:     0.000000     0.000000     0.000000
Rotational constants in MHz :     0.000000     0.000000     0.000000

                             ****ORCA TERMINATED NORMALLY****
TOTAL RUN TIME: 0 days 0 hours 0 minutes 8 seconds 685 msec
