                         Program Version 4.2.0 -  RELEASE  -
|  1> # input to generate an atomic fitting density for Xe
|  2> # this file is use internally by ORCA
|  3> #
|  4> # atomic ground state (S=1): 1s2 2s2 2p6 3s2 3p6 4s2 3d10 4p6 5s2 4d10 5p6
|  5> #
|  6> ! RHF AllowRHF def2-SVP def2/J  NoMulliken NoLoewdin NoMayer NoPrintMOs
|  7>
|  8> %output print[p_atomdensfit] 2 end
|  9>
| 10> %scf
| 11>   guess hcore
| 12>   maxiter 1000
| 13>   maxdisk 500000
| 14>   SCFMode Conventional
| 15>   lshift 1.000000
| 16>   hftyp rohf
| 17>   rohf_case sahf
| 18>   rohf_numop   2
| 19>   rohf_norb[1] 3
| 20>   rohf_nel[1]  6
| 21> end
| 22>
| 23> %basis
| 24>   NewECP 54
| 25>     N_core 28
| 26>     lmax f
| 27>     s 7
| 28>       1      40.0051840000     49.9979620000  2
| 29>       2      17.8122140000    281.0133030000  2
| 30>       3       9.3041500000     61.5382550000  2
| 31>       4      20.8815570000     23.0892950000  2
| 32>       5      20.7834430000     30.0744750000  2
| 33>       6       5.2533890000      0.2882270000  2
| 34>       7       5.3611880000      0.3869240000  2
| 35>     p 8
| 36>       1      15.7017720000     67.4391420000  2
| 37>       2      15.2586080000    134.8747110000  2
| 38>       3       9.2921840000     14.6633000000  2
| 39>       4       8.5590030000     29.3547300000  2
| 40>       5      20.8815570000     23.0892950000  2
| 41>       6      20.7834430000     30.0744750000  2
| 42>       7       5.2533890000      0.2882270000  2
| 43>       8       5.3611880000      0.3869240000  2
| 44>     d 10
| 45>       1      15.1856000000     35.4369080000  2
| 46>       2      14.2845000000     53.1957720000  2
| 47>       3       7.1218890000      9.0462320000  2
| 48>       4       6.9919630000     13.2236810000  2
| 49>       5       0.6239460000      0.0848530000  2
| 50>       6       0.6472840000      0.0441550000  2
| 51>       7      20.8815570000     23.0892950000  2
| 52>       8      20.7834430000     30.0744750000  2
| 53>       9       5.2533890000      0.2882270000  2
| 54>      10       5.3611880000      0.3869240000  2
| 55>     f 4
| 56>       1      20.8815570000    -23.0892950000  2
| 57>       2      20.7834430000    -30.0744750000  2
| 58>       3       5.2533890000     -0.2882270000  2
| 59>       4       5.3611880000     -0.3869240000  2
| 60>   end
| 61>   NewGTO 54
| 62>     s 5
| 63>      1    6420.2481656000      0.0005803743
| 64>      2     983.5453066400      0.0037590265
| 65>      3     219.4388136400      0.0106482436
| 66>      4      23.0125878070     -0.3399766589
| 67>      5      18.0483244900      1.3305328819
| 68>     s 2
| 69>      1      11.7525501630      0.6426392401
| 70>      2       6.2390917199      0.3743679621
| 71>     s 1
| 72>      1       2.6257211320      1.0000000000
| 73>     s 1
| 74>      1       1.2905042943      1.0000000000
| 75>     s 1
| 76>      1       0.3620418506      1.0000000000
| 77>     s 1
| 78>      1       0.1406988809      1.0000000000
| 79>     p 3
| 80>      1     193.8143254500      0.0040702352
| 81>      2      21.7252280860      0.2448817432
| 82>      3       9.8891605641     -1.1935854566
| 83>     p 4
| 84>      1      13.9606838260     -0.0377633548
| 85>      2       4.0928947097      0.2717857050
| 86>      3       2.2546815460      0.5382425559
| 87>      4       1.1546596184      0.2635338256
| 88>     p 1
| 89>      1       0.5232192313      1.0000000000
| 90>     p 1
| 91>      1       0.2194556980      1.0000000000
| 92>     p 1
| 93>      1       0.0861589968      1.0000000000
| 94>     s 1
| 95>      1       0.0502010956      1.0000000000
| 96>     p 1
| 97>      1       0.0237494641      1.0000000000
| 98>   end
| 99>   NewAuxGTO 54
|100>     S 1
|101>      1 1310.72 1.0
|102>     S 1
|103>      1  655.36 1.0
|104>     S 1
|105>      1  327.68 1.0
|106>     S 1
|107>      1  163.84 1.0
|108>     S 1
|109>      1   81.82 1.0
|110>     S 1
|111>      1   40.96 1.0
|112>     S 1
|113>      1   20.48 1.0
|114>     S 1
|115>      1   10.24 1.0
|116>     S 1
|117>      1    5.12 1.0
|118>     S 1
|119>      1    2.56 1.0
|120>     S 1
|121>      1    1.28 1.0
|122>     S 1
|123>      1    0.64 1.0
|124>     S 1
|125>      1    0.32 1.0
|126>     S 1
|127>      1    0.16 1.0
|128>     S 1
|129>      1    0.08 1.0
|130>     S 1
|131>      1    0.04 1.0
|132>     S 1
|133>      1    0.02 1.0
|134>     S 1
|135>      1    0.01 1.0
|136>   end
|137> end
|138>
|139> * xyz 0 1
|140> 54  0.0 0.0 0.0
|141> *
|142>
|143>
|144>                          ****END OF INPUT****

CARTESIAN COORDINATES (ANGSTROEM)
---------------------------------
  Xe     0.000000    0.000000    0.000000

 Total Charge           Charge          ....    0
 Multiplicity           Mult            ....    1
 Number of Electrons    NEL             ....   26
 Basis Dimension        Dim             ....   25

ORBITAL ENERGIES
----------------

  NO   OCC          E(Eh)            E(eV)
   0   2.0000     -14.083134      -383.2216
   1   2.0000     -11.427685      -310.9631
   2   2.0000     -11.427684      -310.9631
   3   2.0000     -11.426206      -310.9229
   4   2.0000      -3.960464      -107.7697
   5   2.0000      -2.786909       -75.8356
   6   2.0000      -2.786907       -75.8356
   7   2.0000      -2.669421       -72.6386
   8   2.0000      -0.462398       -12.5825
   9   2.0000      -0.462395       -12.5824
  10   2.0000      -0.851005       -23.1570
  11   2.0000      -0.581362       -15.8197
  12   2.0000      -0.070305        -1.9131
  13   0.0000       0.053880         1.4661
  14   0.0000       0.053881         1.4662
  15   0.0000       0.053889         1.4664
  16   0.0000       0.426628        11.6091
  17   0.0000       0.426628        11.6091

CleanUpVectors: The p-vectors have cracked symmetry
CleanUpVectors: The p-vectors have cracked symmetry
CleanUpVectors: The p-vectors have cracked symmetry
CleanUpVectors: The p-vectors have cracked symmetry
CleanUpVectors: The p-vectors have cracked symmetry
CleanUpVectors: The p-vectors have cracked symmetry
CleanUpVectors: The p-vectors have cracked symmetry
CleanUpVectors: The p-vectors have cracked symmetry
CleanUpVectors: The p-vectors have cracked symmetry
CleanUpVectors: The p-vectors have cracked symmetry
CleanUpVectors: The p-vectors have cracked symmetry
CleanUpVectors: The p-vectors have cracked symmetry
CleanUpVectors: The p-vectors have cracked symmetry
CleanUpVectors: The p-vectors have cracked symmetry
CleanUpVectors: The p-vectors have cracked symmetry
--------------------------
ATOM BASIS FOR ELEMENT Xe
--------------------------
 NewGTO Xe
 S 12
    1       6420.248165600000         0.000289977163
    2        983.545306640000         0.001878153183
    3        219.438813640000         0.005320269121
    4         23.012587807000        -0.169865321293
    5         18.048324490000         0.664785036143
    6         11.752550163000        -0.792298330027
    7          6.239091719900        -0.461551509275
    8          2.625721132000         1.249299023688
    9          1.290504294300         0.291875353085
   10          0.362041850600         0.016027538770
   11          0.140698880900        -0.018342707307
   12          0.050201095600         0.003562431369
 P 23
    1        193.814325450000        -0.000675369994
    2         21.725228086000        -0.040632978980
    3          9.889160564100         0.198050422766
    4        193.814325450000        -0.000358461134
    5         21.725228086000        -0.021566465613
    6          9.889160564100         0.105117757535
    7        193.814325450000        -0.000004402189
    8         21.725228086000        -0.000264853444
    9          9.889160564100         0.001290930122
   10         13.960683826000         0.039509620845
   11          4.092894709700        -0.284353713075
   12          2.254681546000        -0.563132153346
   13          1.154659618400        -0.275720247429
   14         13.960683826000         0.020970229128
   15          4.092894709700        -0.150924316383
   16          2.254681546000        -0.298889486470
   17          1.154659618400        -0.146341995700
   18         13.960683826000         0.000257531183
   19          4.092894709700        -0.001853471294
   20          2.254681546000        -0.003670601906
   21          1.154659618400        -0.001797196732
   22          0.523219231300         0.169500755516
   23          0.523219231300         0.089964661885
 S 12
    1       6420.248165600000         0.000237297864
    2        983.545306640000         0.001536954617
    3        219.438813640000         0.004353751473
    4         23.012587807000        -0.139006387820
    5         18.048324490000         0.544015493260
    6         11.752550163000        -0.689761760580
    7          6.239091719900        -0.401819074420
    8          2.625721132000         2.054345996023
    9          1.290504294300        -0.821146277584
   10          0.362041850600        -1.129190060077
   11          0.140698880900         0.211513898916
   12          0.050201095600        -0.048265363822
 P 23
    1        193.814325450000        -0.000273383440
    2         21.725228086000        -0.016447848847
    3          9.889160564100         0.080168953876
    4        193.814325450000        -0.000145101706
    5         21.725228086000        -0.008729903037
    6          9.889160564100         0.042550682488
    7        193.814325450000        -0.000001781965
    8         21.725228086000        -0.000107210209
    9          9.889160564100         0.000522556501
   10         13.960683826000         0.027343454306
   11          4.092894709700        -0.196792897378
   12          2.254681546000        -0.389727311331
   13          1.154659618400        -0.190817928033
   14         13.960683826000         0.014512882931
   15          4.092894709700        -0.104450310094
   16          2.254681546000        -0.206852681489
   17          1.154659618400        -0.101279019823
   18         13.960683826000         0.000178229840
   19          4.092894709700        -0.001282733562
   20          2.254681546000        -0.002540316795
   21          1.154659618400        -0.001243787575
   22          0.523219231300         1.359155476573
   23          0.523219231300         0.721388896072
 S 12
    1       6420.248165600000         0.000378768920
    2        983.545306640000         0.002453248546
    3        219.438813640000         0.006949349287
    4         23.012587807000        -0.221878522012
    5         18.048324490000         0.868343933609
    6         11.752550163000        -1.112707346907
    7          6.239091719900        -0.648205020612
    8          2.625721132000         5.064878667278
    9          1.290504294300        -6.144144067481
   10          0.362041850600         4.650881557150
   11          0.140698880900        -3.305739643493
   12          0.050201095600         1.056487322511
 S 12
    1       6420.248165600000         0.002297890849
    2        983.545306640000         0.014883210015
    3        219.438813640000         0.042159863941
    4         23.012587807000        -1.346078303700
    5         18.048324490000         5.268012958538
    6         11.752550163000        -4.177940401090
    7          6.239091719900        -2.433849251857
    8          2.625721132000         4.777399109859
    9          1.290504294300        -3.155250342709
   10          0.362041850600         1.187151324824
   11          0.140698880900        -0.649137929857
   12          0.050201095600         0.187135696271
 S 12
    1       6420.248165600000         0.001862240658
    2        983.545306640000         0.012061547149
    3        219.438813640000         0.034166902583
    4         23.012587807000        -1.090879380818
    5         18.048324490000         4.269266281578
    6         11.752550163000        -1.987742965729
    7          6.239091719900        -1.157954940851
    8          2.625721132000         1.453832568456
    9          1.290504294300        -0.833983345875
   10          0.362041850600         0.286258050569
   11          0.140698880900        -0.153835432962
   12          0.050201095600         0.044142538884
 P 23
    1        193.814325450000        -0.000000308690
    2         21.725228086000        -0.000018572063
    3          9.889160564100         0.000090522652
    4        193.814325450000         0.000004382242
    5         21.725228086000         0.000263653325
    6          9.889160564100        -0.001285080587
    7        193.814325450000        -0.000309478480
    8         21.725228086000        -0.018619471814
    9          9.889160564100         0.090753726578
   10         13.960683826000         0.000030874840
   11          4.092894709700        -0.000222208543
   12          2.254681546000        -0.000440060282
   13          1.154659618400        -0.000215461911
   14         13.960683826000        -0.000438306394
   15          4.092894709700         0.003154524086
   16          2.254681546000         0.006247197978
   17          1.154659618400         0.003058747333
   18         13.960683826000         0.030953653043
   19          4.092894709700        -0.222775769240
   20          2.254681546000        -0.441183613495
   21          1.154659618400        -0.216011915412
   22          0.523219231300         0.001534691158
   23          0.523219231300        -0.021786832162
 P 23
    1        193.814325450000        -0.000105280250
    2         21.725228086000        -0.006334083876
    3          9.889160564100         0.030873148390
    4        193.814325450000        -0.000055878819
    5         21.725228086000        -0.003361894834
    6          9.889160564100         0.016386312544
    7        193.814325450000        -0.000000686237
    8         21.725228086000        -0.000041286764
    9          9.889160564100         0.000201237057
   10         13.960683826000         0.012537775567
   11          4.092894709700        -0.090235313831
   12          2.254681546000        -0.178701399872
   13          1.154659618400        -0.087495615187
   14         13.960683826000         0.006654582372
   15          4.092894709700        -0.047893529882
   16          2.254681546000        -0.094848019820
   17          1.154659618400        -0.046439400303
   18         13.960683826000         0.000081723607
   19          4.092894709700        -0.000588170948
   20          2.254681546000        -0.001164809733
   21          1.154659618400        -0.000570313071
   22          0.523219231300         1.087642602239
   23          0.523219231300         0.577280016654
 P 23
    1        193.814325450000         0.000030538641
    2         21.725228086000         0.001837327656
    3          9.889160564100        -0.008955373889
    4        193.814325450000         0.000016208769
    5         21.725228086000         0.000975184807
    6          9.889160564100        -0.004753177548
    7        193.814325450000         0.000000199057
    8         21.725228086000         0.000011976048
    9          9.889160564100        -0.000058372816
   10         13.960683826000        -0.003772149593
   11          4.092894709700         0.027148444356
   12          2.254681546000         0.053764593980
   13          1.154659618400         0.026324171098
   14         13.960683826000        -0.002002115933
   15          4.092894709700         0.014409378969
   16          2.254681546000         0.028536235800
   17          1.154659618400         0.013971885549
   18         13.960683826000        -0.000024587583
   19          4.092894709700         0.000176958681
   20          2.254681546000         0.000350447765
   21          1.154659618400         0.000171585913
   22          0.523219231300        -0.339593587635
   23          0.523219231300        -0.180243576219
 P 23
    1        193.814325450000        -0.000108954180
    2         21.725228086000        -0.006555122326
    3          9.889160564100         0.031950518533
    4        193.814325450000        -0.000057828804
    5         21.725228086000        -0.003479213776
    6          9.889160564100         0.016958140322
    7        193.814325450000        -0.000000710184
    8         21.725228086000        -0.000042727542
    9          9.889160564100         0.000208259598
   10         13.960683826000         0.013239128168
   11          4.092894709700        -0.095283001251
   12          2.254681546000        -0.188697805600
   13          1.154659618400        -0.092390046173
   14         13.960683826000         0.007026834102
   15          4.092894709700        -0.050572653581
   16          2.254681546000        -0.100153738116
   17          1.154659618400        -0.049037181220
   18         13.960683826000         0.000086295172
   19          4.092894709700        -0.000621072847
   20          2.254681546000        -0.001229968429
   21          1.154659618400        -0.000602216012
   22          0.523219231300         1.547148938150
   23          0.523219231300         0.821168794653
 P 11
    1        193.814325450000        -0.005362497798
    2         21.725228086000        -0.322629465898
    3          9.889160564100         1.572537966015
    4         13.960683826000         0.036067763272
    5          4.092894709700        -0.259582405230
    6          2.254681546000        -0.514075224293
    7          1.154659618400        -0.251701038907
    8          0.523219231300         0.785362890522
    9          0.219455698000        -0.578821634372
   10          0.086158996800         0.246593395958
   11          0.023749464100        -0.058908992699
 end
  // -----------------------------------------------
  // The basis set
  // -----------------------------------------------
  BAS[ATNO] = new BFNGauss[NSH];
  // Basis function   1 L = s
  InitBFNGauss(BAS[ATNO][  0]);
  BAS[ATNO][  0].l  = 0;
  BAS[ATNO][  0].ng = 12;
  BAS[ATNO][  0].a[  0] =      6420.248165600000;     BAS[ATNO][  0].d[  0] =         0.000289977163;
  BAS[ATNO][  0].a[  1] =       983.545306640000;     BAS[ATNO][  0].d[  1] =         0.001878153183;
  BAS[ATNO][  0].a[  2] =       219.438813640000;     BAS[ATNO][  0].d[  2] =         0.005320269121;
  BAS[ATNO][  0].a[  3] =        23.012587807000;     BAS[ATNO][  0].d[  3] =        -0.169865321293;
  BAS[ATNO][  0].a[  4] =        18.048324490000;     BAS[ATNO][  0].d[  4] =         0.664785036143;
  BAS[ATNO][  0].a[  5] =        11.752550163000;     BAS[ATNO][  0].d[  5] =        -0.792298330027;
  BAS[ATNO][  0].a[  6] =         6.239091719900;     BAS[ATNO][  0].d[  6] =        -0.461551509275;
  BAS[ATNO][  0].a[  7] =         2.625721132000;     BAS[ATNO][  0].d[  7] =         1.249299023688;
  BAS[ATNO][  0].a[  8] =         1.290504294300;     BAS[ATNO][  0].d[  8] =         0.291875353085;
  BAS[ATNO][  0].a[  9] =         0.362041850600;     BAS[ATNO][  0].d[  9] =         0.016027538770;
  BAS[ATNO][  0].a[ 10] =         0.140698880900;     BAS[ATNO][  0].d[ 10] =        -0.018342707307;
  BAS[ATNO][  0].a[ 11] =         0.050201095600;     BAS[ATNO][  0].d[ 11] =         0.003562431369;

FINAL SINGLE POINT ENERGY      -282.202671678243

DIPOLE MOMENT
-------------
                                X             Y             Z
Electronic contribution:     -0.00000       0.00000      -0.00000
Nuclear contribution   :      0.00000       0.00000       0.00000
                        -----------------------------------------
Total Dipole Moment    :     -0.00000       0.00000      -0.00000
                        -----------------------------------------
Magnitude (a.u.)       :      0.00000
Magnitude (Debye)      :      0.00000

Rotational constants in cm-1:     0.000000     0.000000     0.000000
Rotational constants in MHz :     0.000000     0.000000     0.000000

                             ****ORCA TERMINATED NORMALLY****
TOTAL RUN TIME: 0 days 0 hours 0 minutes 0 seconds 980 msec
