                         Program Version 4.2.0 -  RELEASE  -
|  1> # input to generate an atomic fitting density for Cs
|  2> # this file is use internally by ORCA
|  3> #
|  4> # atomic ground state (S=2): 1s2 2s2 2p6 3s2 3p6 4s2 3d10 4p6 5s2 4d10 5p6 6s1
|  5> #
|  6> ! RHF AllowRHF def2-SVP def2/J  NoMulliken NoLoewdin NoMayer NoPrintMOs
|  7>
|  8> %output print[p_atomdensfit] 2 end
|  9>
| 10> %scf
| 11>   guess hcore
| 12>   maxiter 1000
| 13>   maxdisk 500000
| 14>   SCFMode Conventional
| 15>   lshift 1.000000
| 16>   hftyp rohf
| 17>   rohf_case sahf
| 18>   rohf_numop   2
| 19>   rohf_norb[1] 1
| 20>   rohf_nel[1]  1
| 21> end
| 22>
| 23> %basis
| 24>   NewECP 55
| 25>     N_core 46
| 26>     lmax f
| 27>     s 3
| 28>       1       4.0797500000     84.5477300000  2
| 29>       2       2.4174060000     16.6541730000  2
| 30>       3       3.1232690000     28.8843090000  2
| 31>     p 3
| 32>       1       5.5140800000    157.0490590000  2
| 33>       2       2.1603160000     26.4233070000  2
| 34>       3       3.1232690000     28.8843090000  2
| 35>     d 3
| 36>       1       1.8074100000     13.1727530000  2
| 37>       2       0.8581820000      3.3428330000  2
| 38>       3       3.1232690000     28.8843090000  2
| 39>     f 1
| 40>       1       3.1232690000    -28.8843090000  2
| 41>   end
| 42>   NewGTO 55
| 43>     s 3
| 44>      1       5.8778113443      0.2532294620
| 45>      2       4.3631538286     -0.6819588200
| 46>      3       1.8048475155      1.3770221239
| 47>     s 1
| 48>      1       0.3748523714      1.0000000000
| 49>     s 1
| 50>      1       0.1638485878      1.0000000000
| 51>     s 1
| 52>      1       0.0272304620      1.0000000000
| 53>     s 1
| 54>      1       0.0119915332      1.0000000000
| 55>     p 4
| 56>      1       4.2751856154      0.0454150690
| 57>      2       1.9656663360     -0.2485141953
| 58>      3       0.4768919521      0.5528590081
| 59>      4       0.2152974959      0.5782637464
| 60>     p 1
| 61>      1       0.0914508503      1.0000000000
| 62>     p 1
| 63>      1       0.0400000000      1.0000000000
| 64>     p 1
| 65>      1       0.0140000000      1.0000000000
| 66>   end
| 67>   NewAuxGTO 55
| 68>     S 1
| 69>      1 1310.72 1.0
| 70>     S 1
| 71>      1  655.36 1.0
| 72>     S 1
| 73>      1  327.68 1.0
| 74>     S 1
| 75>      1  163.84 1.0
| 76>     S 1
| 77>      1   81.82 1.0
| 78>     S 1
| 79>      1   40.96 1.0
| 80>     S 1
| 81>      1   20.48 1.0
| 82>     S 1
| 83>      1   10.24 1.0
| 84>     S 1
| 85>      1    5.12 1.0
| 86>     S 1
| 87>      1    2.56 1.0
| 88>     S 1
| 89>      1    1.28 1.0
| 90>     S 1
| 91>      1    0.64 1.0
| 92>     S 1
| 93>      1    0.32 1.0
| 94>     S 1
| 95>      1    0.16 1.0
| 96>     S 1
| 97>      1    0.08 1.0
| 98>     S 1
| 99>      1    0.04 1.0
|100>     S 1
|101>      1    0.02 1.0
|102>     S 1
|103>      1    0.01 1.0
|104>   end
|105> end
|106>
|107> * xyz 0 2
|108> 55  0.0 0.0 0.0
|109> *
|110>
|111>
|112>                          ****END OF INPUT****

CARTESIAN COORDINATES (ANGSTROEM)
---------------------------------
  Cs     0.000000    0.000000    0.000000

 Total Charge           Charge          ....    0
 Multiplicity           Mult            ....    2
 Number of Electrons    NEL             ....    9
 Basis Dimension        Dim             ....   17

ORBITAL ENERGIES
----------------

  NO   OCC          E(Eh)            E(eV)
   0   2.0000      -1.316151       -35.8143
   1   2.0000      -0.678615       -18.4661
   2   2.0000      -0.678615       -18.4661
   3   2.0000      -0.678615       -18.4661
   4   1.0000      -0.128588        -3.4990
   5   0.0000      -0.079013        -2.1501
   6   0.0000      -0.079013        -2.1501
   7   0.0000      -0.079013        -2.1501
   8   0.0000      -0.045553        -1.2396
   9   0.0000      -0.011876        -0.3232

--------------------------
ATOM BASIS FOR ELEMENT Cs
--------------------------
 NewGTO Cs
 S 7
    1          5.877811344300         0.126787710386
    2          4.363153828600        -0.341445251601
    3          1.804847515500         0.689451696739
    4          0.374852371400        -0.872393164759
    5          0.163848587800        -0.407917684141
    6          0.027230462000        -0.006039287708
    7          0.011991533200         0.001455619453
 S 7
    1          5.877811344300         0.036119431870
    2          4.363153828600        -0.097271324365
    3          1.804847515500         0.196411809252
    4          0.374852371400        -0.297815923158
    5          0.163848587800        -0.298223717036
    6          0.027230462000         0.832515338793
    7          0.011991533200         0.327581193135
 S 7
    1          5.877811344300         0.022902666636
    2          4.363153828600        -0.061677955599
    3          1.804847515500         0.124541111466
    4          0.374852371400        -0.103568662237
    5          0.163848587800        -0.507409246110
    6          0.027230462000         2.515377118433
    7          0.011991533200        -2.331392553588
 S 7
    1          5.877811344300        -0.189921399631
    2          4.363153828600         0.511467238300
    3          1.804847515500        -1.032762803462
    4          0.374852371400         3.363731663568
    5          0.163848587800        -3.417077556804
    6          0.027230462000         1.590487190249
    7          0.011991533200        -0.807025843550
 S 7
    1          5.877811344300         0.376245512074
    2          4.363153828600        -1.013246813454
    3          1.804847515500         2.045964123021
    4          0.374852371400        -1.243685398745
    5          0.163848587800         0.744147897445
    6          0.027230462000        -0.235970526870
    7          0.011991533200         0.120287707927
 P 7
    1          4.275185615400        -0.040987501020
    2          1.965666336000         0.224286256908
    3          0.476891952100        -0.498960139379
    4          0.215297495900        -0.521888140149
    5          0.091450850300        -0.133988051235
    6          0.040000000000         0.000972607221
    7          0.014000000000        -0.001794247565
 P 7
    1          4.275185615400        -0.005618736033
    2          1.965666336000         0.030746087030
    3          0.476891952100        -0.068399518015
    4          0.215297495900        -0.071542583118
    5          0.091450850300         0.026100810103
    6          0.040000000000        -0.183179639947
    7          0.014000000000         1.119537703891
 P 7
    1          4.275185615400        -0.009175949293
    2          1.965666336000         0.050211388089
    3          0.476891952100        -0.111703149113
    4          0.215297495900        -0.116836083965
    5          0.091450850300        -0.734593576544
    6          0.040000000000         2.159160709484
    7          0.014000000000        -1.159196934000
 P 7
    1          4.275185615400        -0.060627438723
    2          1.965666336000         0.331757266456
    3          0.476891952100        -0.738046343959
    4          0.215297495900        -0.771960730714
    5          0.091450850300         2.844165734573
    6          0.040000000000        -2.125742499752
    7          0.014000000000         0.622248044015
 end
  // -----------------------------------------------
  // The basis set
  // -----------------------------------------------
  BAS[ATNO] = new BFNGauss[NSH];
  // Basis function   1 L = s
  InitBFNGauss(BAS[ATNO][  0]);
  BAS[ATNO][  0].l  = 0;
  BAS[ATNO][  0].ng = 7;
  BAS[ATNO][  0].a[  0] =         5.877811344300;     BAS[ATNO][  0].d[  0] =        -0.126787710386;
  BAS[ATNO][  0].a[  1] =         4.363153828600;     BAS[ATNO][  0].d[  1] =         0.341445251601;
  BAS[ATNO][  0].a[  2] =         1.804847515500;     BAS[ATNO][  0].d[  2] =        -0.689451696739;
  BAS[ATNO][  0].a[  3] =         0.374852371400;     BAS[ATNO][  0].d[  3] =         0.872393164759;
  BAS[ATNO][  0].a[  4] =         0.163848587800;     BAS[ATNO][  0].d[  4] =         0.407917684141;
  BAS[ATNO][  0].a[  5] =         0.027230462000;     BAS[ATNO][  0].d[  5] =         0.006039287708;
  BAS[ATNO][  0].a[  6] =         0.011991533200;     BAS[ATNO][  0].d[  6] =        -0.001455619453;

FINAL SINGLE POINT ENERGY       -19.855059842668

DIPOLE MOMENT
-------------
                                X             Y             Z
Electronic contribution:     -0.00000       0.00000       0.00000
Nuclear contribution   :      0.00000       0.00000       0.00000
                        -----------------------------------------
Total Dipole Moment    :     -0.00000       0.00000       0.00000
                        -----------------------------------------
Magnitude (a.u.)       :      0.00000
Magnitude (Debye)      :      0.00000

Rotational constants in cm-1:     0.000000     0.000000     0.000000
Rotational constants in MHz :     0.000000     0.000000     0.000000

                             ****ORCA TERMINATED NORMALLY****
TOTAL RUN TIME: 0 days 0 hours 0 minutes 1 seconds 76 msec
