                         Program Version 4.2.0 -  RELEASE  -
|  1> #
|  2> # 55_Cs CCSD(T)/Def2-TZVPPD
|  3> #
|  4> ! CCSD(T) Def2-TZVPPD tightscf
|  5>
|  6> *xyz 0 2
|  7>  Cs 0.0 0.0 0.0
|  8> *
|  9>
| 10> %maxcore 5000
| 11>
| 12> %pal
| 13> nprocs 24
| 14> end
| 15>
| 16> %method
| 17> NewNCore Cs 46 end
| 18> end
| 19>
| 20>
| 21>                          ****END OF INPUT****

CARTESIAN COORDINATES (ANGSTROEM)
---------------------------------
  Cs     0.000000    0.000000    0.000000

 Total Charge           Charge          ....    0
 Multiplicity           Mult            ....    2
 Number of Electrons    NEL             ....    9
 Basis Dimension        Dim             ....   39

ORBITAL ENERGIES
----------------
                 SPIN UP ORBITALS
  NO   OCC          E(Eh)            E(eV)
   0   1.0000      -1.317914       -35.8623
   1   1.0000      -0.679650       -18.4942
   2   1.0000      -0.679650       -18.4942
   3   1.0000      -0.679650       -18.4942
   4   1.0000      -0.128908        -3.5078
   5   0.0000       0.012354         0.3362
   6   0.0000       0.012354         0.3362
   7   0.0000       0.012354         0.3362
   8   0.0000       0.043243         1.1767
   9   0.0000       0.043243         1.1767

                 SPIN DOWN ORBITALS
  NO   OCC          E(Eh)            E(eV)
   0   1.0000      -1.314872       -35.7795
   1   1.0000      -0.678056       -18.4508
   2   1.0000      -0.678056       -18.4508
   3   1.0000      -0.678056       -18.4508
   4   0.0000       0.008784         0.2390
   5   0.0000       0.029108         0.7921
   6   0.0000       0.029108         0.7921
   7   0.0000       0.029108         0.7921
   8   0.0000       0.050240         1.3671

E(0)                                       ...    -19.855209514
E(0)                                       ...    -19.855209514
E(CORR)                                    ...     -0.154655561
E(TOT)                                     ...    -20.009865074
E(CCSD(T))                                 ...    -20.014234455

MULLIKEN ATOMIC CHARGES AND SPIN DENSITIES
------------------------------------------
   0 Cs:   -0.000000    1.000000
Sum of atomic charges       :   -0.0000000

LOEWDIN ATOMIC CHARGES AND SPIN DENSITIES
-----------------------------------------
   0 Cs:   -0.000000    1.000000

FINAL SINGLE POINT ENERGY       -20.014234455362

DIPOLE MOMENT
-------------
                                X             Y             Z
Electronic contribution:      0.00000       0.00000       0.00000
Nuclear contribution   :      0.00000       0.00000       0.00000
                        -----------------------------------------
Total Dipole Moment    :      0.00000       0.00000       0.00000
                        -----------------------------------------
Magnitude (a.u.)       :      0.00000
Magnitude (Debye)      :      0.00000

Rotational constants in cm-1:     0.000000     0.000000     0.000000
Rotational constants in MHz :     0.000000     0.000000     0.000000

                             ****ORCA TERMINATED NORMALLY****
TOTAL RUN TIME: 0 days 0 hours 0 minutes 10 seconds 539 msec
