                         Program Version 4.2.0 -  RELEASE  -
|  1> #
|  2> # 57_La CCSD(T)/Def2-TZVPPD
|  3> #
|  4> ! CCSD(T) Def2-TZVPPD verytightscf kdiis UNO
|  5>
|  6> *xyz 0 2
|  7>  La 0.0 0.0 0.0
|  8> *
|  9>
| 10> %maxcore 5000
| 11>
| 12> %pal
| 13> nprocs 24
| 14> end
| 15>
| 16> %method
| 17> NewNCore La 46 end
| 18> end
| 19>
| 20> %mdci
| 21> UseQROs true
| 22> maxdiis 40
| 23> maxiter 200
| 24> end
| 25>
| 26>
| 27>                          ****END OF INPUT****

CARTESIAN COORDINATES (ANGSTROEM)
---------------------------------
  La     0.000000    0.000000    0.000000

 Total Charge           Charge          ....    0
 Multiplicity           Mult            ....    2
 Number of Electrons    NEL             ....   11
 Basis Dimension        Dim             ....   59

ORBITAL ENERGIES
----------------
                 SPIN UP ORBITALS
  NO   OCC          E(Eh)            E(eV)
   0   1.0000      -1.826619       -49.7048
   1   1.0000      -1.054120       -28.6841
   2   1.0000      -1.054119       -28.6840
   3   1.0000      -1.027331       -27.9551
   4   1.0000      -0.227028        -6.1777
   5   1.0000      -0.187887        -5.1127
   6   0.0000       0.014693         0.3998
   7   0.0000       0.014694         0.3998
   8   0.0000       0.029851         0.8123
   9   0.0000       0.058779         1.5995
  10   0.0000       0.059593         1.6216

                 SPIN DOWN ORBITALS
  NO   OCC          E(Eh)            E(eV)
   0   1.0000      -1.808538       -49.2128
   1   1.0000      -1.035527       -28.1781
   2   1.0000      -1.006091       -27.3771
   3   1.0000      -1.006089       -27.3771
   4   1.0000      -0.185711        -5.0535
   5   0.0000       0.013630         0.3709
   6   0.0000       0.031408         0.8546
   7   0.0000       0.031408         0.8547
   8   0.0000       0.043278         1.1777
   9   0.0000       0.067215         1.8290

E(0)                                       ...    -31.071195773
E(0)                                       ...    -31.071195773
E(CORR)                                    ...     -0.224831964
E(TOT)                                     ...    -31.296027737
E(CCSD(T))                                 ...    -31.306523878

MULLIKEN ATOMIC CHARGES AND SPIN DENSITIES
------------------------------------------
   0 La:    0.000000    1.000000
Sum of atomic charges       :    0.0000000

LOEWDIN ATOMIC CHARGES AND SPIN DENSITIES
-----------------------------------------
   0 La:    0.000000    1.000000

FINAL SINGLE POINT ENERGY       -31.306523878319

DIPOLE MOMENT
-------------
                                X             Y             Z
Electronic contribution:     -0.00000      -0.00000       0.00000
Nuclear contribution   :      0.00000       0.00000       0.00000
                        -----------------------------------------
Total Dipole Moment    :     -0.00000      -0.00000       0.00000
                        -----------------------------------------
Magnitude (a.u.)       :      0.00000
Magnitude (Debye)      :      0.00000

Rotational constants in cm-1:     0.000000     0.000000     0.000000
Rotational constants in MHz :     0.000000     0.000000     0.000000

                             ****ORCA TERMINATED NORMALLY****
TOTAL RUN TIME: 0 days 0 hours 1 minutes 1 seconds 975 msec
