                         Program Version 4.2.0 -  RELEASE  -
|  1> # input to generate an atomic fitting density for La
|  2> # this file is use internally by ORCA
|  3> #
|  4> # atomic ground state (S=2): 1s2 2s2 2p6 3s2 3p6 4s2 3d10 4p6 5s2 4d10 5p6 6s2 5d1
|  5> #
|  6> ! RHF AllowRHF def2-SVP def2/J  NoMulliken NoLoewdin NoMayer NoPrintMOs
|  7>
|  8> %output print[p_atomdensfit] 2 end
|  9>
| 10> %scf
| 11>   guess hcore
| 12>   maxiter 1000
| 13>   maxdisk 500000
| 14>   SCFMode Conventional
| 15>   lshift 0.100000
| 16>   hftyp rohf
| 17>   rohf_case sahf
| 18>   rohf_numop   2
| 19>   rohf_norb[1] 5
| 20>   rohf_nel[1]  1
| 21> end
| 22>
| 23> %basis
| 24>   NewECP 57
| 25>     N_core 46
| 26>     lmax f
| 27>     s 3
| 28>       1       3.3099000000     91.9321770000  2
| 29>       2       1.6550000000     -3.7887640000  2
| 30>       3       4.0286000000     36.0100160000  2
| 31>     p 3
| 32>       1       2.8368000000     63.7594860000  2
| 33>       2       1.4184000000     -0.6479580000  2
| 34>       3       4.0286000000     36.0100160000  2
| 35>     d 3
| 36>       1       2.0213000000     36.1161730000  2
| 37>       2       1.0107000000      0.2191140000  2
| 38>       3       4.0286000000     36.0100160000  2
| 39>     f 1
| 40>       1       4.0286000000    -36.0100160000  2
| 41>   end
| 42>   NewGTO 57
| 43>     s 2
| 44>      1       5.0873990000     -1.0479303431
| 45>      2       4.2709780000      2.0356668806
| 46>     s 1
| 47>      1       2.1823656045      1.0000000000
| 48>     s 1
| 49>      1       0.4896653378      1.0000000000
| 50>     s 1
| 51>      1       0.2330167535      1.0000000000
| 52>     s 1
| 53>      1       0.0557195231      1.0000000000
| 54>     s 1
| 55>      1       0.0228547088      1.0000000000
| 56>     p 4
| 57>      1       6.0000000000     -0.0332796858
| 58>      2       3.6808191615      0.4284807406
| 59>      3       2.3265462081     -1.0389154466
| 60>      4       0.6434262963      1.3382857902
| 61>     p 1
| 62>      1       0.3358428196      1.0000000000
| 63>     p 1
| 64>      1       0.1651905192      1.0000000000
| 65>     p 1
| 66>      1       0.0354000000      1.0000000000
| 67>     d 3
| 68>      1       1.2675288018     -0.3307279350
| 69>      2       0.8939534028      0.4732395193
| 70>      3       0.3309576734      0.8396218523
| 71>     d 1
| 72>      1       0.1346137750      1.0000000000
| 73>     d 1
| 74>      1       0.0514416298      1.0000000000
| 75>     f 1
| 76>      1       0.3894100000      1.0000000000
| 77>     f 1
| 78>      1       0.1204300000      1.0000000000
| 79>     p 1
| 80>      1       0.0205732215      1.0000000000
| 81>   end
| 82>   NewAuxGTO 57
| 83>     S 1
| 84>      1 1310.72 1.0
| 85>     S 1
| 86>      1  655.36 1.0
| 87>     S 1
| 88>      1  327.68 1.0
| 89>     S 1
| 90>      1  163.84 1.0
| 91>     S 1
| 92>      1   81.82 1.0
| 93>     S 1
| 94>      1   40.96 1.0
| 95>     S 1
| 96>      1   20.48 1.0
| 97>     S 1
| 98>      1   10.24 1.0
| 99>     S 1
|100>      1    5.12 1.0
|101>     S 1
|102>      1    2.56 1.0
|103>     S 1
|104>      1    1.28 1.0
|105>     S 1
|106>      1    0.64 1.0
|107>     S 1
|108>      1    0.32 1.0
|109>     S 1
|110>      1    0.16 1.0
|111>     S 1
|112>      1    0.08 1.0
|113>     S 1
|114>      1    0.04 1.0
|115>     S 1
|116>      1    0.02 1.0
|117>     S 1
|118>      1    0.01 1.0
|119>   end
|120> end
|121>
|122> * xyz 0 2
|123> 57  0.0 0.0 0.0
|124> *
|125>
|126>
|127>                          ****END OF INPUT****

CARTESIAN COORDINATES (ANGSTROEM)
---------------------------------
  La     0.000000    0.000000    0.000000

 Total Charge           Charge          ....    0
 Multiplicity           Mult            ....    2
 Number of Electrons    NEL             ....   11
 Basis Dimension        Dim             ....   50

ORBITAL ENERGIES
----------------

  NO   OCC          E(Eh)            E(eV)
   0   2.0000      -1.851959       -50.3944
   1   2.0000      -1.060522       -28.8583
   2   2.0000      -1.060518       -28.8582
   3   2.0000      -1.060518       -28.8582
   4   2.0000      -0.179512        -4.8848
   5   0.2000      -0.233975        -6.3668
   6   0.2000      -0.233974        -6.3668
   7   0.2000      -0.233974        -6.3667
   8   0.2000      -0.233971        -6.3667
   9   0.2000      -0.233967        -6.3666
  10   0.0000      -0.128591        -3.4991
  11   0.0000      -0.128591        -3.4991
  12   0.0000      -0.128591        -3.4991
  13   0.0000      -0.053483        -1.4553
  14   0.0000      -0.053482        -1.4553

CleanUpVectors: The d-vectors have cracked symmetry at i=5
CleanUpVectors: The d-vectors have cracked symmetry at i=6
CleanUpVectors: The d-vectors have cracked symmetry at i=7
CleanUpVectors: The d-vectors have cracked symmetry at i=8
CleanUpVectors: The d-vectors have cracked symmetry at i=9
CleanUpVectors: The d-vectors have cracked symmetry at i=17
CleanUpVectors: The d-vectors have cracked symmetry at i=18
CleanUpVectors: The d-vectors have cracked symmetry at i=19
CleanUpVectors: The d-vectors have cracked symmetry at i=20
CleanUpVectors: The d-vectors have cracked symmetry at i=21
CleanUpVectors: The f-vectors have cracked symmetry
CleanUpVectors: The f-vectors have cracked symmetry
CleanUpVectors: The f-vectors have cracked symmetry
CleanUpVectors: The f-vectors have cracked symmetry
CleanUpVectors: The f-vectors have cracked symmetry
CleanUpVectors: The f-vectors have cracked symmetry
CleanUpVectors: The f-vectors have cracked symmetry
CleanUpVectors: The p-vectors have cracked symmetry
CleanUpVectors: The p-vectors have cracked symmetry
CleanUpVectors: The p-vectors have cracked symmetry
CleanUpVectors: The d-vectors have cracked symmetry at i=32
CleanUpVectors: The d-vectors have cracked symmetry at i=33
CleanUpVectors: The d-vectors have cracked symmetry at i=34
CleanUpVectors: The d-vectors have cracked symmetry at i=35
CleanUpVectors: The d-vectors have cracked symmetry at i=36
CleanUpVectors: The f-vectors have cracked symmetry
CleanUpVectors: The f-vectors have cracked symmetry
CleanUpVectors: The f-vectors have cracked symmetry
CleanUpVectors: The f-vectors have cracked symmetry
CleanUpVectors: The f-vectors have cracked symmetry
CleanUpVectors: The f-vectors have cracked symmetry
--------------------------
ATOM BASIS FOR ELEMENT La
--------------------------
 NewGTO La
 S 7
    1          5.087399000000        -0.494444900601
    2          4.270978000000         0.960488562109
    3          2.182365604500        -1.031411267938
    4          0.489665337800         0.919915412582
    5          0.233016753500         0.428432592730
    6          0.055719523100         0.010304273336
    7          0.022854708800        -0.002209735449
 S 7
    1          5.087399000000        -0.167260414738
    2          4.270978000000         0.324913281650
    3          2.182365604500        -0.365415593117
    4          0.489665337800         0.433064634974
    5          0.233016753500         0.351258733279
    6          0.055719523100        -0.708030006707
    7          0.022854708800        -0.524635212771
 P 22
    1          5.087399000000         0.000000257015
    2          4.270978000000        -0.000000544901
    3          2.182365604500         0.000000791968
    4          0.489665337800         0.000001312912
    5          0.233016753500        -0.000019355805
    6          0.055719523100         0.000145309482
    7          0.022854708800        -0.000233932766
    8          6.000000000000        -0.000002846570
    9          3.680819161500         0.000036649996
   10          2.326546208100        -0.000088863381
   11          0.643426296300         0.000114469951
   12          6.000000000000        -0.000014752008
   13          3.680819161500         0.000189934226
   14          2.326546208100        -0.000460523851
   15          0.643426296300         0.000593226839
   16          6.000000000000         0.000021342437
   17          3.680819161500        -0.000274786941
   18          2.326546208100         0.000666261913
   19          0.643426296300        -0.000858249681
   20          0.335842819600         0.000181887619
   21          0.335842819600         0.001204296445
   22          0.335842819600        -0.001708375844
 P 8
    1          6.000000000000         0.011397632625
    2          3.680819161500        -0.146746159128
    3          2.326546208100         0.355807944213
    4          0.643426296300        -0.458336351951
    5          0.335842819600        -0.510313307211
    6          0.165190519200        -0.199492098041
    7          0.035400000000        -0.016088078689
    8          0.020573221500         0.006646225908
 P 22
    1          5.087399000000        -0.000001639205
    2          4.270978000000         0.000003475297
    3          2.182365604500        -0.000005449179
    4          0.489665337800         0.000010539594
    5          0.233016753500         0.000027991199
    6          0.055719523100        -0.000114743557
    7          0.022854708800        -0.000008157482
    8          6.000000000000         0.000007082207
    9          3.680819161500        -0.000091184428
   10          2.326546208100         0.000221090242
   11          0.643426296300        -0.000284798854
   12          6.000000000000        -0.000006855635
   13          3.680819161500         0.000088267289
   14          2.326546208100        -0.000214017204
   15          0.643426296300         0.000275687674
   16          6.000000000000        -0.000004308402
   17          3.680819161500         0.000055471299
   18          2.326546208100        -0.000134498436
   19          0.643426296300         0.000173255049
   20          0.335842819600        -0.000920600606
   21          0.335842819600         0.000853024287
   22          0.335842819600         0.000527086791
 P 22
    1          5.087399000000        -0.000003070688
    2          4.270978000000         0.000006510198
    3          2.182365604500        -0.000010257660
    4          0.489665337800         0.000026963292
    5          0.233016753500         0.000023573790
    6          0.055719523100        -0.000104656552
    7          0.022854708800        -0.000141201434
    8          6.000000000000         0.000002185833
    9          3.680819161500        -0.000028142916
   10          2.326546208100         0.000068236697
   11          0.643426296300        -0.000087899552
   12          6.000000000000         0.000002627197
   13          3.680819161500        -0.000033825535
   14          2.326546208100         0.000082015054
   15          0.643426296300        -0.000105648233
   16          6.000000000000         0.000002089922
   17          3.680819161500        -0.000026908047
   18          2.326546208100         0.000065242572
   19          0.643426296300        -0.000084042650
   20          0.335842819600        -0.000253394914
   21          0.335842819600        -0.000310839980
   22          0.335842819600        -0.000245886430
 S 0
 S 0
 P 8
    1          6.000000000000         0.002799003779
    2          3.680819161500        -0.036037576172
    3          2.326546208100         0.087378477013
    4          0.643426296300        -0.112557161931
    5          0.335842819600        -0.151977898258
    6          0.165190519200        -0.190364268605
    7          0.035400000000         2.707851742621
    8          0.020573221500        -2.382926088024
 P 22
    1          5.087399000000         0.000017908185
    2          4.270978000000        -0.000037967335
    3          2.182365604500         0.000037858146
    4          0.489665337800        -0.000041074087
    5          0.233016753500         0.000038944372
    6          0.055719523100        -0.000025431329
    7          0.022854708800         0.000016589876
    8          6.000000000000         0.013140858068
    9          3.680819161500        -0.169190437406
   10          2.326546208100         0.410227443578
   11          0.643426296300        -0.528437189269
   12          6.000000000000         0.078584844386
   13          3.680819161500        -1.011791172697
   14          2.326546208100         2.453238566980
   15          0.643426296300        -3.160155453366
   16          6.000000000000        -0.040927256723
   17          3.680819161500         0.526944316030
   18          2.326546208100        -1.277655067191
   19          0.643426296300         1.645819808334
   20          0.335842819600         0.592256266542
   21          0.335842819600         3.541805629547
   22          0.335842819600        -1.844584565922
 P 22
    1          5.087399000000         0.000000083711
    2          4.270978000000        -0.000000177476
    3          2.182365604500         0.000000295509
    4          0.233016753500        -0.000004506542
    5          0.055719523100         0.000027038065
    6          0.022854708800        -0.000033307668
    7          6.000000000000        -0.000000287306
    8          3.680819161500         0.000003699111
    9          2.326546208100        -0.000008969045
   10          0.643426296300         0.000011553535
   11          6.000000000000         0.000000102750
   12          3.680819161500        -0.000001322920
   13          2.326546208100         0.000003207617
   14          0.643426296300        -0.000004131913
   15          6.000000000000         0.000000335661
   16          3.680819161500        -0.000004321684
   17          2.326546208100         0.000010478568
   18          0.643426296300        -0.000013498037
   19          0.335842819600         0.000008342527
   20          0.335842819600         0.000006253784
   21          0.335842819600        -0.000007241332
   22          0.165190519200         0.000037218079
 P 22
    1          5.087399000000         0.000000375319
    2          4.270978000000        -0.000000795718
    3          2.182365604500         0.000001270059
    4          0.489665337800        -0.000001725808
    5          0.233016753500        -0.000011927404
    6          0.055719523100         0.000085767905
    7          0.022854708800        -0.000115999316
    8          6.000000000000        -0.000001271684
    9          3.680819161500         0.000016373109
   10          2.326546208100        -0.000039699044
   11          0.643426296300         0.000051138585
   12          6.000000000000        -0.000005475794
   13          3.680819161500         0.000070501636
   14          2.326546208100        -0.000170941729
   15          0.643426296300         0.000220199716
   16          6.000000000000         0.000008087438
   17          3.680819161500        -0.000104126926
   18          2.326546208100         0.000252471259
   19          0.643426296300        -0.000325222519
   20          0.335842819600         0.000064909105
   21          0.335842819600         0.000259329950
   22          0.335842819600        -0.000387830495
 P 22
    1          5.087399000000        -0.000000090143
    2          4.270978000000         0.000000191113
    3          2.182365604500        -0.000000304021
    4          0.489665337800         0.000000924641
    5          0.233016753500         0.000000581301
    6          0.055719523100        -0.000008471397
    7          0.022854708800         0.000009065723
    8          3.680819161500        -0.000000019108
    9          2.326546208100         0.000000046330
   10          6.000000000000        -0.000000009055
   11          3.680819161500         0.000000116583
   12          2.326546208100        -0.000000282672
   13          0.643426296300         0.000000364126
   14          6.000000000000         0.000000013328
   15          3.680819161500        -0.000000171601
   16          2.326546208100         0.000000416072
   17          0.643426296300        -0.000000535966
   18          0.335842819600         0.000002071301
   19          0.335842819600        -0.000002059461
   20          0.165190519200        -0.000003237546
   21          0.165190519200         0.000002610980
   22          0.035400000000         0.000006594128
 S 22
    1          5.087399000000        -0.000003332034
    2          4.270978000000         0.000006472674
    3          2.182365604500        -0.000007443855
    4          0.489665337800         0.000006476022
    5          0.233016753500         0.000016413258
    6          0.055719523100        -0.000047853543
    7          0.022854708800         0.000027156897
    8          6.000000000000         0.000000165372
    9          3.680819161500        -0.000001667671
   10          2.326546208100         0.000003214718
   11          0.643426296300        -0.000002177736
   12          6.000000000000         0.000000210547
   13          3.680819161500        -0.000002123229
   14          2.326546208100         0.000004092883
   15          0.643426296300        -0.000002772628
   16          6.000000000000         0.000000067020
   17          3.680819161500        -0.000000675851
   18          2.326546208100         0.000001302817
   19          0.643426296300        -0.000000882563
   20          0.335842819600        -0.000004876497
   21          0.335842819600        -0.000006131339
   22          0.335842819600        -0.000002512218
 S 22
    1          5.087399000000        -0.000001216820
    2          4.270978000000         0.000002363746
    3          2.182365604500        -0.000002723983
    4          0.489665337800         0.000002055880
    5          0.233016753500         0.000006858558
    6          0.055719523100        -0.000018466770
    7          0.022854708800         0.000010095700
    8          3.680819161500        -0.000000326237
    9          2.326546208100         0.000000628877
   10          0.643426296300        -0.000000426018
   11          6.000000000000        -0.000000069507
   12          3.680819161500         0.000000700932
   13          2.326546208100        -0.000001351165
   14          0.643426296300         0.000000915315
   15          6.000000000000         0.000000158112
   16          3.680819161500        -0.000001594456
   17          2.326546208100         0.000003073584
   18          0.643426296300        -0.000002082128
   19          0.335842819600        -0.000000819128
   20          0.335842819600        -0.000001832106
   21          0.165190519200         0.000000583953
   22          0.165190519200         0.000001779327
 P 22
    1          5.087399000000         0.000000442215
    2          4.270978000000        -0.000000937545
    3          2.182365604500         0.000001379708
    4          0.489665337800        -0.000010149788
    5          0.233016753500         0.000023341026
    6          0.055719523100        -0.000048677988
    7          0.022854708800         0.000036522558
    8          6.000000000000         0.007178374344
    9          3.680819161500        -0.092422601990
   10          2.326546208100         0.224092379714
   11          0.643426296300        -0.288666078115
   12          6.000000000000        -0.004109177809
   13          3.680819161500         0.052906255227
   14          2.326546208100        -0.128279104681
   15          0.643426296300         0.165243575438
   16          6.000000000000        -0.003338957699
   17          3.680819161500         0.042989560545
   18          2.326546208100        -0.104234599740
   19          0.643426296300         0.134270487686
   20          0.335842819600        -1.249204682787
   21          0.335842819600         0.715092819749
   22          0.335842819600         0.581056575304
 P 22
    1          5.087399000000        -0.000000740674
    2          4.270978000000         0.000001570310
    3          2.182365604500        -0.000002445005
    4          0.489665337800         0.000012274541
    5          0.233016753500        -0.000016368949
    6          0.055719523100         0.000002592307
    7          0.022854708800         0.000013323928
    8          6.000000000000         0.000000716608
    9          3.680819161500        -0.000009226435
   10          2.326546208100         0.000022370867
   11          0.643426296300        -0.000028817180
   12          6.000000000000         0.000000269673
   13          3.680819161500        -0.000003472085
   14          2.326546208100         0.000008418587
   15          0.643426296300        -0.000010844458
   16          6.000000000000         0.000000490270
   17          3.680819161500        -0.000006312294
   18          2.326546208100         0.000015305099
   19          0.643426296300        -0.000019715364
   20          0.335842819600        -0.000103818168
   21          0.335842819600        -0.000041284665
   22          0.335842819600        -0.000066339399
 P 22
    1          5.087399000000         0.000000600072
    2          4.270978000000        -0.000001272218
    3          2.182365604500         0.000002013015
    4          0.489665337800        -0.000009992334
    5          0.233016753500         0.000012650921
    6          0.022854708800        -0.000009845453
    7          6.000000000000         0.000000316126
    8          3.680819161500        -0.000004070168
    9          2.326546208100         0.000009868729
   10          0.643426296300        -0.000012712469
   11          6.000000000000         0.000000763974
   12          3.680819161500        -0.000009836279
   13          2.326546208100         0.000023849526
   14          0.643426296300        -0.000030721925
   15          6.000000000000         0.000000528888
   16          3.680819161500        -0.000006809513
   17          2.326546208100         0.000016510680
   18          0.643426296300        -0.000021268341
   19          0.335842819600        -0.000048295971
   20          0.335842819600        -0.000117196590
   21          0.335842819600        -0.000081974187
   22          0.165190519200         0.000067250828
 S 22
    1          5.087399000000        -0.000004130027
    2          4.270978000000         0.000008022823
    3          2.182365604500        -0.000009085693
    4          0.489665337800         0.000023428488
    5          0.233016753500        -0.000023996106
    6          0.055719523100         0.000010634422
    7          0.022854708800        -0.000004787741
    8          6.000000000000        -0.000000046677
    9          3.680819161500         0.000000470704
   10          2.326546208100        -0.000000907362
   11          0.643426296300         0.000000614671
   12          3.680819161500         0.000000181576
   13          2.326546208100        -0.000000350018
   14          0.643426296300         0.000000237112
   15          6.000000000000        -0.000000043317
   16          3.680819161500         0.000000436821
   17          2.326546208100        -0.000000842046
   18          0.643426296300         0.000000570424
   19          0.165190519200         0.000001022985
   20          1.267528801800         0.000015100744
   21          0.893953402800        -0.000015239317
   22          0.330957673400        -0.000010009809
 S 22
    1          5.087399000000        -0.000005092645
    2          4.270978000000         0.000009892764
    3          2.182365604500        -0.000011204264
    4          0.489665337800         0.000030523707
    5          0.233016753500        -0.000033435479
    6          0.055719523100         0.000016671484
    7          0.022854708800        -0.000006887872
    8          3.680819161500        -0.000000164908
    9          2.326546208100         0.000000317889
   10          0.643426296300        -0.000000215346
   11          6.000000000000         0.000000082654
   12          3.680819161500        -0.000000833510
   13          2.326546208100         0.000001606731
   14          0.643426296300        -0.000001088442
   15          6.000000000000        -0.000000066055
   16          3.680819161500         0.000000666123
   17          2.326546208100        -0.000001284065
   18          0.643426296300         0.000000869860
   19          0.335842819600        -0.000000550471
   20          0.165190519200        -0.000001307342
   21          0.165190519200         0.000001695412
   22          0.035400000000         0.000002192895
 D 22
    1          5.087399000000        -0.000000050096
    2          4.270978000000         0.000000115916
    3          2.182365604500        -0.000000256915
    4          0.489665337800         0.000003165080
    5          0.233016753500        -0.000007405800
    6          0.055719523100         0.000015838538
    7          6.000000000000        -0.000000002313
    8          3.680819161500         0.000000038021
    9          2.326546208100        -0.000000115956
   10          0.643426296300         0.000000284033
   11          3.680819161500        -0.000000016359
   12          2.326546208100         0.000000049890
   13          0.643426296300        -0.000000122204
   14          3.680819161500        -0.000000017531
   15          2.326546208100         0.000000053466
   16          0.643426296300        -0.000000130964
   17          0.165190519200         0.000001489088
   18          1.267528801800         0.000012186824
   19          0.893953402800        -0.000017438160
   20          0.330957673400        -0.000030938794
   21          1.267528801800         0.000004360392
   22          0.893953402800        -0.000006239297
 P 22
    1          5.087399000000         0.000063936643
    2          4.270978000000        -0.000135552758
    3          2.182365604500         0.000135137470
    4          0.489665337800        -0.000146334677
    5          0.233016753500         0.000138490346
    6          0.055719523100        -0.000090092385
    7          0.022854708800         0.000058720801
    8          6.000000000000         0.056513777277
    9          3.680819161500        -0.727623009638
   10          2.326546208100         1.764230483163
   11          0.643426296300        -2.272605142201
   12          6.000000000000         0.024432314999
   13          3.680819161500        -0.314569569208
   14          2.326546208100         0.762720826198
   15          0.643426296300        -0.982503866826
   16          6.000000000000         0.065058091030
   17          3.680819161500        -0.837632277970
   18          2.326546208100         2.030964357779
   19          0.643426296300        -2.616200143441
   20          0.335842819600         2.547066361509
   21          0.335842819600         1.101160296308
   22          0.335842819600         2.932157167904
 end
  // -----------------------------------------------
  // The basis set
  // -----------------------------------------------
  BAS[ATNO] = new BFNGauss[NSH];
  // Basis function   1 L = s
  InitBFNGauss(BAS[ATNO][  0]);
  BAS[ATNO][  0].l  = 0;
  BAS[ATNO][  0].ng = 7;
  BAS[ATNO][  0].a[  0] =         5.087399000000;     BAS[ATNO][  0].d[  0] =         0.494444900601;
  BAS[ATNO][  0].a[  1] =         4.270978000000;     BAS[ATNO][  0].d[  1] =        -0.960488562109;
  BAS[ATNO][  0].a[  2] =         2.182365604500;     BAS[ATNO][  0].d[  2] =         1.031411267938;
  BAS[ATNO][  0].a[  3] =         0.489665337800;     BAS[ATNO][  0].d[  3] =        -0.919915412582;
  BAS[ATNO][  0].a[  4] =         0.233016753500;     BAS[ATNO][  0].d[  4] =        -0.428432592730;
  BAS[ATNO][  0].a[  5] =         0.055719523100;     BAS[ATNO][  0].d[  5] =        -0.010304273336;
  BAS[ATNO][  0].a[  6] =         0.022854708800;     BAS[ATNO][  0].d[  6] =         0.002209735449;

FINAL SINGLE POINT ENERGY       -31.070441256007

DIPOLE MOMENT
-------------
                                X             Y             Z
Electronic contribution:     -0.00099      -0.00102      -0.00117
Nuclear contribution   :      0.00000       0.00000       0.00000
                        -----------------------------------------
Total Dipole Moment    :     -0.00099      -0.00102      -0.00117
                        -----------------------------------------
Magnitude (a.u.)       :      0.00184
Magnitude (Debye)      :      0.00467

Rotational constants in cm-1:     0.000000     0.000000     0.000000
Rotational constants in MHz :     0.000000     0.000000     0.000000

                             ****ORCA TERMINATED NORMALLY****
TOTAL RUN TIME: 0 days 0 hours 0 minutes 30 seconds 787 msec
