                         Program Version 4.2.0 -  RELEASE  -
|  1> # input to generate an atomic fitting density for Ta
|  2> # this file is use internally by ORCA
|  3> #
|  4> # atomic ground state (S=4): 1s2 2s2 2p6 3s2 3p6 4s2 3d10 4p6 5s2 4d10 5p6 6s2 4f14 5d3
|  5> #
|  6> ! RHF AllowRHF def2-SVP def2/J  NoMulliken NoLoewdin NoMayer NoPrintMOs
|  7>
|  8> %output print[p_atomdensfit] 2 end
|  9>
| 10> %scf
| 11>   guess hcore
| 12>   maxiter 1000
| 13>   maxdisk 500000
| 14>   SCFMode Conventional
| 15>   lshift 0.200000
| 16>   hftyp rohf
| 17>   rohf_case sahf
| 18>   rohf_numop   2
| 19>   rohf_norb[1] 5
| 20>   rohf_nel[1]  3
| 21> end
| 22>
| 23> %basis
| 24>   NewECP 73
| 25>     N_core 60
| 26>     lmax f
| 27>     s 3
| 28>       1      14.5464077000   1345.8806470000  2
| 29>       2       7.2732038000     36.7668062000  2
| 30>       3       2.0178811000    -12.0179609000  2
| 31>     p 3
| 32>       1       9.9355653000    378.4253015000  2
| 33>       2       4.9677824000     22.2930909000  2
| 34>       3       2.0178811000    -12.0179609000  2
| 35>     d 3
| 36>       1       6.3473769000    104.8839557000  2
| 37>       2       3.1736885000      8.7558481000  2
| 38>       3       2.0178811000    -12.0179609000  2
| 39>     f 1
| 40>       1       2.0178811000     12.0179609000  2
| 41>   end
| 42>   NewGTO 73
| 43>     s 4
| 44>      1      24.4736509440      2.2386323911
| 45>      2      18.7213725490     -8.1183993878
| 46>      3      11.5000000000     37.0432560568
| 47>      4      10.3500000000    -30.6331089410
| 48>     s 1
| 49>      1       3.8436180089      1.0000000000
| 50>     s 1
| 51>      1       1.0202266016      1.0000000000
| 52>     s 1
| 53>      1       0.4677478187      1.0000000000
| 54>     s 1
| 55>      1       0.1032318667      1.0000000000
| 56>     s 1
| 57>      1       0.0386744612      1.0000000000
| 58>     p 4
| 59>      1      17.0000000000     -0.0771704057
| 60>      2      12.0081865360      0.2448500499
| 61>      3       5.0278760583     -0.6757474915
| 62>      4       1.1937124184      1.2268252800
| 63>     p 1
| 64>      1       0.5788970705      1.0000000000
| 65>     p 1
| 66>      1       0.2722519880      1.0000000000
| 67>     p 1
| 68>      1       0.0650000000      1.0000000000
| 69>     d 3
| 70>      1       3.9738796278     -0.0943566000
| 71>      2       1.4528884813      0.3316520432
| 72>      3       0.6104290854      0.7677130412
| 73>     d 1
| 74>      1       0.2421627651      1.0000000000
| 75>     d 1
| 76>      1       0.0879093183      1.0000000000
| 77>     p 1
| 78>      1       0.0277011051      1.0000000000
| 79>   end
| 80>   NewAuxGTO 73
| 81>     S 1
| 82>      1 1310.72 1.0
| 83>     S 1
| 84>      1  655.36 1.0
| 85>     S 1
| 86>      1  327.68 1.0
| 87>     S 1
| 88>      1  163.84 1.0
| 89>     S 1
| 90>      1   81.82 1.0
| 91>     S 1
| 92>      1   40.96 1.0
| 93>     S 1
| 94>      1   20.48 1.0
| 95>     S 1
| 96>      1   10.24 1.0
| 97>     S 1
| 98>      1    5.12 1.0
| 99>     S 1
|100>      1    2.56 1.0
|101>     S 1
|102>      1    1.28 1.0
|103>     S 1
|104>      1    0.64 1.0
|105>     S 1
|106>      1    0.32 1.0
|107>     S 1
|108>      1    0.16 1.0
|109>     S 1
|110>      1    0.08 1.0
|111>     S 1
|112>      1    0.04 1.0
|113>     S 1
|114>      1    0.02 1.0
|115>     S 1
|116>      1    0.01 1.0
|117>   end
|118> end
|119>
|120> * xyz 0 4
|121> 73  0.0 0.0 0.0
|122> *
|123>
|124>
|125>                          ****END OF INPUT****

CARTESIAN COORDINATES (ANGSTROEM)
---------------------------------
  Ta     0.000000    0.000000    0.000000

 Total Charge           Charge          ....    0
 Multiplicity           Mult            ....    4
 Number of Electrons    NEL             ....   13
 Basis Dimension        Dim             ....   36

ORBITAL ENERGIES
----------------

  NO   OCC          E(Eh)            E(eV)
   0   2.0000      -3.228033       -87.8392
   1   2.0000      -1.796726       -48.8914
   2   2.0000      -1.796689       -48.8904
   3   2.0000      -1.788700       -48.6730
   4   2.0000      -0.293160        -7.9773
   5   0.6000      -0.369393       -10.0517
   6   0.6000      -0.357342        -9.7238
   7   0.6000      -0.357301        -9.7227
   8   0.6000      -0.354869        -9.6565
   9   0.6000      -0.181612        -4.9419
  10   0.0000      -0.078338        -2.1317
  11   0.0000      -0.078314        -2.1310
  12   0.0000      -0.147581        -4.0159
  13   0.0000       0.044778         1.2185
  14   0.0000       0.037015         1.0072

CleanUpVectors: The p-vectors have cracked symmetry
CleanUpVectors: The p-vectors have cracked symmetry
CleanUpVectors: The p-vectors have cracked symmetry
CleanUpVectors: The d-vectors have cracked symmetry at i=5
CleanUpVectors: The d-vectors have cracked symmetry at i=6
CleanUpVectors: The d-vectors have cracked symmetry at i=7
CleanUpVectors: The d-vectors have cracked symmetry at i=8
CleanUpVectors: The p-vectors have cracked symmetry
CleanUpVectors: The p-vectors have cracked symmetry
CleanUpVectors: The p-vectors have cracked symmetry
CleanUpVectors: The d-vectors have cracked symmetry at i=12
CleanUpVectors: The p-vectors have cracked symmetry
CleanUpVectors: The p-vectors have cracked symmetry
CleanUpVectors: The p-vectors have cracked symmetry
CleanUpVectors: The d-vectors have cracked symmetry at i=17
CleanUpVectors: The d-vectors have cracked symmetry at i=18
CleanUpVectors: The d-vectors have cracked symmetry at i=19
CleanUpVectors: The d-vectors have cracked symmetry at i=20
CleanUpVectors: The d-vectors have cracked symmetry at i=21
CleanUpVectors: The p-vectors have cracked symmetry
CleanUpVectors: The p-vectors have cracked symmetry
CleanUpVectors: The p-vectors have cracked symmetry
CleanUpVectors: The d-vectors have cracked symmetry at i=25
CleanUpVectors: The d-vectors have cracked symmetry at i=26
CleanUpVectors: The d-vectors have cracked symmetry at i=27
CleanUpVectors: The d-vectors have cracked symmetry at i=28
CleanUpVectors: The d-vectors have cracked symmetry at i=29
CleanUpVectors: The p-vectors have cracked symmetry
CleanUpVectors: The p-vectors have cracked symmetry
CleanUpVectors: The p-vectors have cracked symmetry
--------------------------
ATOM BASIS FOR ELEMENT Ta
--------------------------
 NewGTO Ta
 S 9
    1         24.473650944000         0.204724187909
    2         18.721372549000        -0.742432177967
    3         11.500000000000         3.387626545519
    4         10.350000000000        -2.801414996057
    5          3.843618008900        -0.616017602693
    6          1.020226601600         0.834000948432
    7          0.467747818700         0.503551681569
    8          0.103231866700         0.013050189840
    9          0.038674461200        -0.002689160263
 P 22
    1         17.000000000000        -0.021928432072
    2         12.008186536000         0.069575605289
    3          5.027876058300        -0.192017689043
    4          1.193712418400         0.348609736755
    5         17.000000000000        -0.006388862991
    6         12.008186536000         0.020270897995
    7          5.027876058300        -0.055944478982
    8          1.193712418400         0.101567674250
    9         17.000000000000         0.020965881380
   10         12.008186536000        -0.066521577222
   11          5.027876058300         0.183589053614
   12          1.193712418400        -0.333307477923
   13          0.578897070500         0.356039831796
   14          0.578897070500         0.103732437288
   15          0.578897070500        -0.340411428208
   16          0.272251988000         0.109729257961
   17          0.272251988000         0.031969690899
   18          0.272251988000        -0.104912681343
   19          0.065000000000         0.007342097096
   20          0.065000000000         0.002139124779
   21          0.065000000000        -0.007019815019
   22          0.027701105100        -0.001974217712
 S 9
    1         24.473650944000         0.070191559629
    2         18.721372549000        -0.254549660315
    3         11.500000000000         1.161478734390
    4         10.350000000000        -0.960490744892
    5          3.843618008900        -0.229199839788
    6          1.020226601600         0.400542637097
    7          0.467747818700         0.374276407457
    8          0.103231866700        -0.782735318339
    9          0.038674461200        -0.442054021251
 D 22
    1         24.473650944000        -0.000000447590
    2         18.721372549000         0.000002121918
    3         11.500000000000        -0.000015761851
    4         10.350000000000         0.000014482603
    5          3.843618008900         0.000009162212
    6          1.020226601600        -0.000054642747
    7          0.467747818700        -0.000143704537
    8          0.103231866700         0.001073797700
    9          0.038674461200         0.002274295475
   10          3.973879627800        -0.000833589844
   11          1.452888481300         0.002929967539
   12          0.610429085400         0.006782332074
   13          3.973879627800        -0.009060271146
   14          1.452888481300         0.031845757876
   15          0.610429085400         0.073717030032
   16          3.973879627800         0.053706645710
   17          1.452888481300        -0.188772367626
   18          0.610429085400        -0.436973060822
   19          3.973879627800        -0.002744493835
   20          1.452888481300         0.009646564077
   21          0.610429085400         0.022330008805
   22          3.973879627800         0.006579276836
 D 22
    1          3.973879627800        -0.008578725500
    2          1.452888481300         0.030153183137
    3          0.610429085400         0.069799033060
    4          3.973879627800         0.035966866502
    5          1.452888481300        -0.126419188089
    6          0.610429085400        -0.292637001171
    7          3.973879627800         0.010954995610
    8          1.452888481300        -0.038505485331
    9          0.610429085400        -0.089133065370
   10          3.973879627800         0.016845871424
   11          1.452888481300        -0.059211201730
   12          0.610429085400        -0.137062963082
   13          3.973879627800        -0.033955746036
   14          1.452888481300         0.119350342756
   15          0.610429085400         0.276273933733
   16          0.242162765100         0.068403065890
   17          0.242162765100        -0.286784317709
   18          0.242162765100        -0.087350421291
   19          0.242162765100        -0.134321730312
   20          0.242162765100         0.270748508458
   21          0.087909318300         0.028863414701
   22          0.087909318300        -0.121011749752
 P 22
    1         17.000000000000        -0.003761916030
    2         12.008186536000         0.011935991775
    3          5.027876058300        -0.032941453366
    4          1.193712418400         0.059805486899
    5         17.000000000000         0.000148550783
    6         12.008186536000        -0.000471329215
    7          5.027876058300         0.001300794240
    8          1.193712418400        -0.002361602933
    9         17.000000000000        -0.003889359444
   10         12.008186536000         0.012340350491
   11          5.027876058300        -0.034057419601
   12          1.193712418400         0.061831533026
   13          0.578897070500         0.119352770117
   14          0.578897070500        -0.004713009903
   15          0.578897070500         0.123396115137
   16          0.272251988000        -0.065387746260
   17          0.272251988000         0.002582035552
   18          0.272251988000        -0.067602904048
   19          0.065000000000        -0.132157471523
   20          0.065000000000         0.005218642780
   21          0.065000000000        -0.136634604763
   22          0.027701105100        -0.574480107426
 P 22
    1         17.000000000000        -0.005149395272
    2         12.008186536000         0.016338253995
    3          5.027876058300        -0.045091002256
    4          1.193712418400         0.081863095555
    5         17.000000000000        -0.001500279680
    6         12.008186536000         0.004760160986
    7          5.027876058300        -0.013137292996
    8          1.193712418400         0.023850866427
    9         17.000000000000         0.004923362104
   10         12.008186536000        -0.015621084868
   11          5.027876058300         0.043111728662
   12          1.193712418400        -0.078269707623
   13          0.578897070500         0.124092734281
   14          0.578897070500         0.036154499286
   15          0.578897070500        -0.118645672565
   16          0.272251988000         0.064522184282
   17          0.272251988000         0.018798580587
   18          0.272251988000        -0.061689977208
   19          0.065000000000        -1.260697585426
   20          0.065000000000        -0.367305065984
   21          0.065000000000         1.205359151683
   22          0.027701105100         1.081352156330
 P 22
    1         17.000000000000         0.025736850530
    2         12.008186536000        -0.081659142249
    3          5.027876058300         0.225366343831
    4          1.193712418400        -0.409154501276
    5         17.000000000000        -0.194392663320
    6         12.008186536000         0.616778580886
    7          5.027876058300        -1.702211533200
    8          1.193712418400         3.090379419984
    9         17.000000000000        -0.032318188854
   10         12.008186536000         0.102540735425
   11          5.027876058300        -0.282996245122
   12          1.193712418400         0.513782073968
   13          0.578897070500         0.523169841198
   14          0.578897070500        -3.951547167035
   15          0.578897070500        -0.656953021927
   16          0.272251988000        -0.278096954384
   17          0.272251988000         2.100490406210
   18          0.272251988000         0.349210944868
   19          0.065000000000         0.088250744857
   20          0.065000000000        -0.666565526847
   21          0.065000000000        -0.110817919833
   22          0.027701105100        -0.040194935486
 D 22
    1         24.473650944000         0.000003628631
    2         18.721372549000        -0.000017202500
    3         11.500000000000         0.000127782136
    4         10.350000000000        -0.000117411208
    5          3.843618008900        -0.000053196730
    6          1.020226601600        -0.002013575279
    7          0.467747818700         0.016692049399
    8          0.103231866700        -0.181270757076
    9          0.038674461200         0.412055560331
   10          3.973879627800        -0.010602416476
   11          1.452888481300         0.037266212297
   12          0.610429085400         0.086264377873
   13          3.973879627800        -0.004893170986
   14          1.452888481300         0.017198904529
   15          0.610429085400         0.039812277874
   16          3.973879627800        -0.000850388413
   17          1.452888481300         0.002989012477
   18          0.610429085400         0.006919010166
   19          3.973879627800         0.017992571905
   20          1.452888481300        -0.063241715308
   21          0.610429085400        -0.146392855360
   22          3.973879627800         0.006147641238
 D 22
    1         24.473650944000        -0.000000076956
    2         18.721372549000         0.000000364829
    3         11.500000000000        -0.000002709990
    4         10.350000000000         0.000002490044
    5          3.843618008900         0.000001694209
    6          1.020226601600        -0.000018688993
    7          0.467747818700         0.000021488188
    8          0.103231866700         0.000107795674
    9          0.038674461200        -0.000319918582
   10          3.973879627800        -0.001770851364
   11          1.452888481300         0.006224328486
   12          0.610429085400         0.014408167383
   13          3.973879627800        -0.018817795281
   14          1.452888481300         0.066142275724
   15          0.610429085400         0.153107115391
   16          3.973879627800         0.111430180530
   17          1.452888481300        -0.391663614914
   18          0.610429085400        -0.906628712525
   19          3.973879627800        -0.005624384013
   20          1.452888481300         0.019769029931
   21          0.610429085400         0.045761642062
   22          3.973879627800         0.013674975810
 P 22
    1         17.000000000000        -0.140560841497
    2         12.008186536000         0.445978335118
    3          5.027876058300        -1.230829813358
    4          1.193712418400         2.234581925053
    5         17.000000000000        -0.040952491290
    6         12.008186536000         0.129936073872
    7          5.027876058300        -0.358603055259
    8          1.193712418400         0.651046876549
    9         17.000000000000         0.134390899907
   10         12.008186536000        -0.426402041689
   11          5.027876058300         1.176802333344
   12          1.193712418400        -2.136494578624
   13          0.578897070500        -2.857297073916
   14          0.578897070500        -0.832475334419
   15          0.578897070500         2.731875542132
   16          0.272251988000         1.518887766953
   17          0.272251988000         0.442528924725
   18          0.272251988000        -1.452215935004
   19          0.065000000000        -0.482069051798
   20          0.065000000000        -0.140451127316
   21          0.065000000000         0.460908550339
   22          0.027701105100         0.219569263210
 end
  // -----------------------------------------------
  // The basis set
  // -----------------------------------------------
  BAS[ATNO] = new BFNGauss[NSH];
  // Basis function   1 L = s
  InitBFNGauss(BAS[ATNO][  0]);
  BAS[ATNO][  0].l  = 0;
  BAS[ATNO][  0].ng = 9;
  BAS[ATNO][  0].a[  0] =        24.473650944000;     BAS[ATNO][  0].d[  0] =         0.204724187909;
  BAS[ATNO][  0].a[  1] =        18.721372549000;     BAS[ATNO][  0].d[  1] =        -0.742432177967;
  BAS[ATNO][  0].a[  2] =        11.500000000000;     BAS[ATNO][  0].d[  2] =         3.387626545519;
  BAS[ATNO][  0].a[  3] =        10.350000000000;     BAS[ATNO][  0].d[  3] =        -2.801414996057;
  BAS[ATNO][  0].a[  4] =         3.843618008900;     BAS[ATNO][  0].d[  4] =        -0.616017602693;
  BAS[ATNO][  0].a[  5] =         1.020226601600;     BAS[ATNO][  0].d[  5] =         0.834000948432;
  BAS[ATNO][  0].a[  6] =         0.467747818700;     BAS[ATNO][  0].d[  6] =         0.503551681569;
  BAS[ATNO][  0].a[  7] =         0.103231866700;     BAS[ATNO][  0].d[  7] =         0.013050189840;
  BAS[ATNO][  0].a[  8] =         0.038674461200;     BAS[ATNO][  0].d[  8] =        -0.002689160263;

FINAL SINGLE POINT ENERGY       -56.206794641887

DIPOLE MOMENT
-------------
                                X             Y             Z
Electronic contribution:      0.00000       0.00000       0.00000
Nuclear contribution   :      0.00000       0.00000       0.00000
                        -----------------------------------------
Total Dipole Moment    :      0.00000       0.00000       0.00000
                        -----------------------------------------
Magnitude (a.u.)       :      0.00000
Magnitude (Debye)      :      0.00000

Rotational constants in cm-1:     0.000000     0.000000     0.000000
Rotational constants in MHz :     0.000000     0.000000     0.000000

                             ****ORCA TERMINATED NORMALLY****
TOTAL RUN TIME: 0 days 0 hours 0 minutes 1 seconds 659 msec
