                         Program Version 4.2.0 -  RELEASE  -
|  1> #
|  2> # 73_Ta CCSD(T)/Def2-TZVPPD
|  3> #
|  4> ! CCSD(T) Def2-TZVPPD tightscf slowconv
|  5>
|  6> *xyz 0 4
|  7>  Ta 0.0 0.0 0.0
|  8> *
|  9>
| 10> %maxcore 5000
| 11>
| 12> %pal
| 13> nprocs 24
| 14> end
| 15>
| 16> %method
| 17> NewNCore Ta 60 end
| 18> end
| 19>
| 20>
| 21>                          ****END OF INPUT****

CARTESIAN COORDINATES (ANGSTROEM)
---------------------------------
  Ta     0.000000    0.000000    0.000000

 Total Charge           Charge          ....    0
 Multiplicity           Mult            ....    4
 Number of Electrons    NEL             ....   13
 Basis Dimension        Dim             ....   59

ORBITAL ENERGIES
----------------
                 SPIN UP ORBITALS
  NO   OCC          E(Eh)            E(eV)
   0   1.0000      -3.186123       -86.6988
   1   1.0000      -1.791056       -48.7371
   2   1.0000      -1.791038       -48.7366
   3   1.0000      -1.791028       -48.7364
   4   1.0000      -0.327282        -8.9058
   5   1.0000      -0.327270        -8.9055
   6   1.0000      -0.327255        -8.9051
   7   1.0000      -0.282424        -7.6851
   8   0.0000       0.027253         0.7416
   9   0.0000       0.027258         0.7417
  10   0.0000       0.027260         0.7418
  11   0.0000       0.081857         2.2274
  12   0.0000       0.081864         2.2276

                 SPIN DOWN ORBITALS
  NO   OCC          E(Eh)            E(eV)
   0   1.0000      -3.083068       -83.8946
   1   1.0000      -1.632390       -44.4196
   2   1.0000      -1.632375       -44.4192
   3   1.0000      -1.632348       -44.4185
   4   1.0000      -0.217417        -5.9162
   5   0.0000       0.034470         0.9380
   6   0.0000       0.034476         0.9381
   7   0.0000       0.034481         0.9383
   8   0.0000       0.118754         3.2315
   9   0.0000       0.118761         3.2317

E(0)                                       ...    -56.292557426
E(0)                                       ...    -56.292557426
E(CORR)                                    ...     -0.291808020
E(TOT)                                     ...    -56.584365446
E(CCSD(T))                                 ...    -56.595913667

MULLIKEN ATOMIC CHARGES AND SPIN DENSITIES
------------------------------------------
   0 Ta:   -0.000000    3.000000
Sum of atomic charges       :   -0.0000000

LOEWDIN ATOMIC CHARGES AND SPIN DENSITIES
-----------------------------------------
   0 Ta:   -0.000000    3.000000

FINAL SINGLE POINT ENERGY       -56.595913666942

DIPOLE MOMENT
-------------
                                X             Y             Z
Electronic contribution:      0.00000       0.00000      -0.00000
Nuclear contribution   :      0.00000       0.00000       0.00000
                        -----------------------------------------
Total Dipole Moment    :      0.00000       0.00000      -0.00000
                        -----------------------------------------
Magnitude (a.u.)       :      0.00000
Magnitude (Debye)      :      0.00000

Rotational constants in cm-1:     0.000000     0.000000     0.000000
Rotational constants in MHz :     0.000000     0.000000     0.000000

                             ****ORCA TERMINATED NORMALLY****
TOTAL RUN TIME: 0 days 0 hours 0 minutes 19 seconds 604 msec
