                         Program Version 4.2.0 -  RELEASE  -
|  1> #
|  2> # 74_W CCSD(T)/Def2-TZVPPD
|  3> #
|  4> ! CCSD(T) Def2-TZVPPD tightscf veryslowconv kdiis
|  5>
|  6> *xyz 0 5
|  7>  W 0.0 0.0 0.0
|  8> *
|  9>
| 10> %maxcore 5000
| 11>
| 12> %pal
| 13> nprocs 24
| 14> end
| 15>
| 16> %method
| 17> NewNCore W 60 end
| 18> end
| 19>
| 20>
| 21>                          ****END OF INPUT****

CARTESIAN COORDINATES (ANGSTROEM)
---------------------------------
  W      0.000000    0.000000    0.000000

 Total Charge           Charge          ....    0
 Multiplicity           Mult            ....    5
 Number of Electrons    NEL             ....   14
 Basis Dimension        Dim             ....   59

ORBITAL ENERGIES
----------------
                 SPIN UP ORBITALS
  NO   OCC          E(Eh)            E(eV)
   0   1.0000      -3.488692       -94.9321
   1   1.0000      -2.026066       -55.1320
   2   1.0000      -1.997249       -54.3479
   3   1.0000      -1.996948       -54.3397
   4   1.0000      -0.402772       -10.9600
   5   1.0000      -0.374524       -10.1913
   6   1.0000      -0.374355       -10.1867
   7   1.0000      -0.365518        -9.9463
   8   1.0000      -0.303662        -8.2631
   9   0.0000       0.028018         0.7624
  10   0.0000       0.028735         0.7819
  11   0.0000       0.028867         0.7855
  12   0.0000       0.047681         1.2975
  13   0.0000       0.142023         3.8646

                 SPIN DOWN ORBITALS
  NO   OCC          E(Eh)            E(eV)
   0   1.0000      -3.333484       -90.7087
   1   1.0000      -1.789901       -48.7057
   2   1.0000      -1.789437       -48.6931
   3   1.0000      -1.745802       -47.5057
   4   1.0000      -0.222767        -6.0618
   5   0.0000       0.034073         0.9272
   6   0.0000       0.034251         0.9320
   7   0.0000       0.040903         1.1130
   8   0.0000       0.106040         2.8855
   9   0.0000       0.126803         3.4505

E(0)                                       ...    -66.318792670
E(0)                                       ...    -66.318792670
E(CORR)                                    ...     -0.324699664
E(TOT)                                     ...    -66.643492334
E(CCSD(T))                                 ...    -66.656490494

MULLIKEN ATOMIC CHARGES AND SPIN DENSITIES
------------------------------------------
   0 W :   -0.000000    4.000000
Sum of atomic charges       :   -0.0000000

LOEWDIN ATOMIC CHARGES AND SPIN DENSITIES
-----------------------------------------
   0 W :   -0.000000    4.000000

FINAL SINGLE POINT ENERGY       -66.656490494011

DIPOLE MOMENT
-------------
                                X             Y             Z
Electronic contribution:     -0.00000      -0.00000      -0.00000
Nuclear contribution   :      0.00000       0.00000       0.00000
                        -----------------------------------------
Total Dipole Moment    :     -0.00000      -0.00000      -0.00000
                        -----------------------------------------
Magnitude (a.u.)       :      0.00000
Magnitude (Debye)      :      0.00000

Rotational constants in cm-1:     0.000000     0.000000     0.000000
Rotational constants in MHz :     0.000000     0.000000     0.000000

                             ****ORCA TERMINATED NORMALLY****
TOTAL RUN TIME: 0 days 0 hours 0 minutes 18 seconds 123 msec
