                         Program Version 4.2.0 -  RELEASE  -
|  1> #
|  2> # 75_Re CCSD(T)/Def2-TZVPPD
|  3> #
|  4> ! CCSD(T) Def2-TZVPPD tightscf slowconv
|  5>
|  6> *xyz 0 6
|  7>  Re 0.0 0.0 0.0
|  8> *
|  9>
| 10> %maxcore 5000
| 11>
| 12> %pal
| 13> nprocs 24
| 14> end
| 15>
| 16> %method
| 17> NewNCore Re 60 end
| 18> end
| 19>
| 20>
| 21>                          ****END OF INPUT****

CARTESIAN COORDINATES (ANGSTROEM)
---------------------------------
  Re     0.000000    0.000000    0.000000

 Total Charge           Charge          ....    0
 Multiplicity           Mult            ....    6
 Number of Electrons    NEL             ....   15
 Basis Dimension        Dim             ....   59

ORBITAL ENERGIES
----------------
                 SPIN UP ORBITALS
  NO   OCC          E(Eh)            E(eV)
   0   1.0000      -3.789920      -103.1290
   1   1.0000      -2.230567       -60.6968
   2   1.0000      -2.230567       -60.6968
   3   1.0000      -2.230567       -60.6968
   4   1.0000      -0.441860       -12.0236
   5   1.0000      -0.441860       -12.0236
   6   1.0000      -0.441860       -12.0236
   7   1.0000      -0.441860       -12.0236
   8   1.0000      -0.441860       -12.0236
   9   1.0000      -0.324475        -8.8294
  10   0.0000       0.030479         0.8294
  11   0.0000       0.030479         0.8294
  12   0.0000       0.030479         0.8294
  13   0.0000       0.150753         4.1022
  14   0.0000       0.150753         4.1022

                 SPIN DOWN ORBITALS
  NO   OCC          E(Eh)            E(eV)
   0   1.0000      -3.571802       -97.1937
   1   1.0000      -1.913826       -52.0779
   2   1.0000      -1.913826       -52.0779
   3   1.0000      -1.913826       -52.0779
   4   1.0000      -0.222806        -6.0629
   5   0.0000       0.038677         1.0525
   6   0.0000       0.038677         1.0525
   7   0.0000       0.038677         1.0525
   8   0.0000       0.134410         3.6575
   9   0.0000       0.134410         3.6575

E(0)                                       ...    -77.534572219
E(0)                                       ...    -77.534572219
E(CORR)                                    ...     -0.357864221
E(TOT)                                     ...    -77.892436440
E(CCSD(T))                                 ...    -77.905283531

MULLIKEN ATOMIC CHARGES AND SPIN DENSITIES
------------------------------------------
   0 Re:   -0.000000    5.000000
Sum of atomic charges       :   -0.0000000

LOEWDIN ATOMIC CHARGES AND SPIN DENSITIES
-----------------------------------------
   0 Re:   -0.000000    5.000000

FINAL SINGLE POINT ENERGY       -77.905283530696

DIPOLE MOMENT
-------------
                                X             Y             Z
Electronic contribution:     -0.00000       0.00000      -0.00000
Nuclear contribution   :      0.00000       0.00000       0.00000
                        -----------------------------------------
Total Dipole Moment    :     -0.00000       0.00000      -0.00000
                        -----------------------------------------
Magnitude (a.u.)       :      0.00000
Magnitude (Debye)      :      0.00000

Rotational constants in cm-1:     0.000000     0.000000     0.000000
Rotational constants in MHz :     0.000000     0.000000     0.000000

                             ****ORCA TERMINATED NORMALLY****
TOTAL RUN TIME: 0 days 0 hours 0 minutes 35 seconds 770 msec
