                         Program Version 4.2.0 -  RELEASE  -
|  1> # input to generate an atomic fitting density for Os
|  2> # this file is use internally by ORCA
|  3> #
|  4> # atomic ground state (S=5): 1s2 2s2 2p6 3s2 3p6 4s2 3d10 4p6 5s2 4d10 5p6 6s2 4f14 5d6
|  5> #
|  6> ! RHF AllowRHF def2-SVP def2/J  NoMulliken NoLoewdin NoMayer NoPrintMOs
|  7>
|  8> %output print[p_atomdensfit] 2 end
|  9>
| 10> %scf
| 11>   guess hcore
| 12>   maxiter 1000
| 13>   maxdisk 500000
| 14>   SCFMode Conventional
| 15>   lshift 1.000000
| 16>   hftyp rohf
| 17>   rohf_case sahf
| 18>   rohf_numop   2
| 19>   rohf_norb[1] 5
| 20>   rohf_nel[1]  6
| 21> end
| 22>
| 23> %basis
| 24>   NewECP 76
| 25>     N_core 60
| 26>     lmax f
| 27>     s 3
| 28>       1      13.8757539000    885.4057191000  2
| 29>       2       6.9378769000     25.9670401000  2
| 30>       3       2.7670751000    -18.9094570000  2
| 31>     p 3
| 32>       1      10.1937926000    320.0839019000  2
| 33>       2       5.0968962000     26.1487649000  2
| 34>       3       2.7670751000    -18.9094570000  2
| 35>     d 3
| 36>       1       7.0992385000    115.0448431000  2
| 37>       2       3.5496192000     13.6225746000  2
| 38>       3       2.7670751000    -18.9094570000  2
| 39>     f 1
| 40>       1       2.7670751000     18.9094570000  2
| 41>   end
| 42>   NewGTO 76
| 43>     s 3
| 44>      1      30.0000000000      0.9881517203
| 45>      2      27.0000000000     -1.4700619919
| 46>      3      13.5247300050      1.4560441448
| 47>     s 1
| 48>      1       5.2402883472      1.0000000000
| 49>     s 1
| 50>      1       1.1306661245      1.0000000000
| 51>     s 1
| 52>      1       0.5168996692      1.0000000000
| 53>     s 1
| 54>      1       0.1322295354      1.0000000000
| 55>     s 1
| 56>      1       0.0472203188      1.0000000000
| 57>     p 4
| 58>      1      15.5000000000      0.3696785165
| 59>      2      14.0000000000     -0.5355179504
| 60>      3       5.5458290420      0.6871857809
| 61>      4       1.4139502215     -1.2522275443
| 62>     p 1
| 63>      1       0.6813668676      1.0000000000
| 64>     p 1
| 65>      1       0.3091145265      1.0000000000
| 66>     p 1
| 67>      1       0.0520000000      1.0000000000
| 68>     d 4
| 69>      1       8.2945059487      0.0525688853
| 70>      2       6.3060397430     -0.1241172847
| 71>      3       1.4890109110      0.4162938627
| 72>      4       0.6731539061      0.6676861931
| 73>     d 1
| 74>      1       0.2859080522      1.0000000000
| 75>     d 1
| 76>      1       0.1105801205      1.0000000000
| 77>     p 1
| 78>      1       0.0207659320      1.0000000000
| 79>   end
| 80>   NewAuxGTO 76
| 81>     S 1
| 82>      1 1310.72 1.0
| 83>     S 1
| 84>      1  655.36 1.0
| 85>     S 1
| 86>      1  327.68 1.0
| 87>     S 1
| 88>      1  163.84 1.0
| 89>     S 1
| 90>      1   81.82 1.0
| 91>     S 1
| 92>      1   40.96 1.0
| 93>     S 1
| 94>      1   20.48 1.0
| 95>     S 1
| 96>      1   10.24 1.0
| 97>     S 1
| 98>      1    5.12 1.0
| 99>     S 1
|100>      1    2.56 1.0
|101>     S 1
|102>      1    1.28 1.0
|103>     S 1
|104>      1    0.64 1.0
|105>     S 1
|106>      1    0.32 1.0
|107>     S 1
|108>      1    0.16 1.0
|109>     S 1
|110>      1    0.08 1.0
|111>     S 1
|112>      1    0.04 1.0
|113>     S 1
|114>      1    0.02 1.0
|115>     S 1
|116>      1    0.01 1.0
|117>   end
|118> end
|119>
|120> * xyz 0 5
|121> 76  0.0 0.0 0.0
|122> *
|123>
|124>
|125>                          ****END OF INPUT****

CARTESIAN COORDINATES (ANGSTROEM)
---------------------------------
  Os     0.000000    0.000000    0.000000

 Total Charge           Charge          ....    0
 Multiplicity           Mult            ....    5
 Number of Electrons    NEL             ....   16
 Basis Dimension        Dim             ....   36

ORBITAL ENERGIES
----------------

  NO   OCC          E(Eh)            E(eV)
   0   2.0000      -4.341847      -118.1477
   1   2.0000      -2.588521       -70.4372
   2   2.0000      -2.574416       -70.0534
   3   2.0000      -2.574383       -70.0525
   4   2.0000      -0.719507       -19.5788
   5   1.2000      -0.707263       -19.2456
   6   1.2000      -0.707258       -19.2455
   7   1.2000      -0.530297       -14.4301
   8   1.2000      -0.225548        -6.1375
   9   1.2000      -0.225413        -6.1338
  10   0.0000      -0.296434        -8.0664
  11   0.0000      -0.296330        -8.0636
  12   0.0000      -0.061019        -1.6604
  13   0.0000       0.039449         1.0735
  14   0.0000       0.044358         1.2070

CleanUpVectors: The p-vectors have cracked symmetry
CleanUpVectors: The p-vectors have cracked symmetry
CleanUpVectors: The p-vectors have cracked symmetry
CleanUpVectors: The d-vectors have cracked symmetry at i=4
CleanUpVectors: The d-vectors have cracked symmetry at i=5
CleanUpVectors: The d-vectors have cracked symmetry at i=6
CleanUpVectors: The p-vectors have cracked symmetry
CleanUpVectors: The p-vectors have cracked symmetry
CleanUpVectors: The d-vectors have cracked symmetry at i=10
CleanUpVectors: The d-vectors have cracked symmetry at i=11
CleanUpVectors: The p-vectors have cracked symmetry
CleanUpVectors: The p-vectors have cracked symmetry
CleanUpVectors: The p-vectors have cracked symmetry
CleanUpVectors: The p-vectors have cracked symmetry
CleanUpVectors: The d-vectors have cracked symmetry at i=17
CleanUpVectors: The d-vectors have cracked symmetry at i=18
CleanUpVectors: The d-vectors have cracked symmetry at i=19
CleanUpVectors: The d-vectors have cracked symmetry at i=20
CleanUpVectors: The d-vectors have cracked symmetry at i=21
CleanUpVectors: The p-vectors have cracked symmetry
CleanUpVectors: The p-vectors have cracked symmetry
CleanUpVectors: The p-vectors have cracked symmetry
CleanUpVectors: The d-vectors have cracked symmetry at i=25
CleanUpVectors: The d-vectors have cracked symmetry at i=26
CleanUpVectors: The d-vectors have cracked symmetry at i=27
CleanUpVectors: The d-vectors have cracked symmetry at i=28
CleanUpVectors: The d-vectors have cracked symmetry at i=29
CleanUpVectors: The p-vectors have cracked symmetry
CleanUpVectors: The p-vectors have cracked symmetry
CleanUpVectors: The p-vectors have cracked symmetry
--------------------------
ATOM BASIS FOR ELEMENT Os
--------------------------
 NewGTO Os
 S 8
    1         30.000000000000        -0.325263185227
    2         27.000000000000         0.483890313748
    3         13.524730005000        -0.479276154299
    4          5.240288347200         0.898104835855
    5          1.130666124500        -0.983713675480
    6          0.516899669200        -0.361806688616
    7          0.132229535400        -0.001258305340
    8          0.047220318800        -0.000127244269
 P 22
    1         30.000000000000         0.000000001897
    2         27.000000000000        -0.000000002975
    3         13.524730005000         0.000000004164
    4          5.240288347200        -0.000000013034
    5         15.500000000000        -0.116946676514
    6         14.000000000000         0.169409478014
    7          5.545829042000        -0.217389135796
    8          1.413950221500         0.396138382431
    9         15.500000000000         0.100759433916
   10         14.000000000000        -0.145960566075
   11          5.545829042000         0.187299091475
   12          1.413950221500        -0.341306656637
   13         15.500000000000         0.051371325260
   14         14.000000000000        -0.074416731253
   15          5.545829042000         0.095492820624
   16          1.413950221500        -0.174012244711
   17          0.681366867600         0.368897647464
   18          0.681366867600        -0.317836463926
   19          0.681366867600        -0.162046170103
   20          0.309114526500         0.072716021278
   21          0.309114526500        -0.062650990682
   22          0.309114526500        -0.031942065324
 D 22
    1         30.000000000000         0.000179497157
    2         27.000000000000        -0.000296706516
    3         13.524730005000         0.000586679802
    4          5.240288347200        -0.002994886024
    5          1.130666124500         0.024137810784
    6          0.516899669200         0.008751638394
    7          0.132229535400        -0.280007681910
    8          0.047220318800        -0.052773104945
    9         15.500000000000         0.000000001519
   10         14.000000000000        -0.000000002315
   11          5.545829042000         0.000000004719
   12         15.500000000000        -0.000000001308
   13         14.000000000000         0.000000001994
   14          5.545829042000        -0.000000004066
   15         15.500000000000        -0.000000000667
   16         14.000000000000         0.000000001017
   17          5.545829042000        -0.000000002073
   18          8.294505948700        -0.010524701347
   19          6.306039743000         0.024849249627
   20          1.489010911000        -0.083345282144
   21          0.673153906100        -0.133675989808
   22          8.294505948700         0.029583875066
 S 8
    1         30.000000000000        -2.079194640871
    2         27.000000000000         3.093194043500
    3         13.524730005000        -3.063698742356
    4          5.240288347200         3.376200375885
    5          1.130666124500        -1.947650116364
    6          0.516899669200         1.321648708156
    7          0.132229535400        -0.438621724811
    8          0.047220318800         0.159902309106
 S 8
    1         30.000000000000        -1.940877852596
    2         27.000000000000         2.887421742439
    3         13.524730005000        -2.859888593006
    4          5.240288347200         1.358712215961
    5          1.130666124500        -0.626420904049
    6          0.516899669200         0.417076747564
    7          0.132229535400        -0.137972008056
    8          0.047220318800         0.050392979027
 D 22
    1         15.500000000000         0.000000000655
    2         14.000000000000        -0.000000000999
    3          5.545829042000         0.000000002036
    4         15.500000000000        -0.000000000565
    5         14.000000000000         0.000000000861
    6          5.545829042000        -0.000000001755
    7         14.000000000000         0.000000000439
    8          8.294505948700        -0.011192042001
    9          6.306039743000         0.026424868161
   10          1.489010911000        -0.088629963705
   11          0.673153906100        -0.142151994932
   12          8.294505948700        -0.020452449165
   13          6.306039743000         0.048289067597
   14          1.489010911000        -0.161963279529
   15          0.673153906100        -0.259769973137
   16          8.294505948700         0.010695107843
   17          6.306039743000        -0.025251586322
   18          1.489010911000         0.084694733976
   19          0.673153906100         0.135840351182
   20          8.294505948700        -0.027659354257
   21          6.306039743000         0.065304864794
   22          1.489010911000        -0.219034878856
 P 22
    1         30.000000000000         0.000000003580
    2         27.000000000000        -0.000000005614
    3         13.524730005000         0.000000007856
    4          5.240288347200        -0.000000025098
    5          1.130666124500         0.000000092591
    6          0.132229535400        -0.000000896208
    7         15.500000000000        -0.025406576339
    8         14.000000000000         0.036804079978
    9          5.545829042000        -0.047227624063
   10          1.413950221500         0.086060761656
   11         15.500000000000         0.021889910222
   12         14.000000000000        -0.031709821732
   13          5.545829042000         0.040690584869
   14          1.413950221500        -0.074148611020
   15         15.500000000000         0.011160381259
   16         14.000000000000        -0.016166978146
   17          5.545829042000         0.020745742498
   18          1.413950221500        -0.037804027535
   19          0.681366867600         0.183965884724
   20          0.681366867600        -0.158502139243
   21          0.681366867600        -0.080810943779
   22          0.309114526500        -0.180165720679
 P 22
    1         15.500000000000        -0.009713654824
    2         14.000000000000         0.014071243770
    3          5.545829042000        -0.018056460350
    4          1.413950221500         0.032903470402
    5         15.500000000000        -0.006341967758
    6         14.000000000000         0.009187002825
    7          5.545829042000        -0.011788918944
    8          1.413950221500         0.021482413387
    9         15.500000000000        -0.009674007152
   10         14.000000000000         0.014013809976
   11          5.545829042000        -0.017982760325
   12          1.413950221500         0.032769170183
   13          0.681366867600         0.063295622675
   14          0.681366867600         0.041325207198
   15          0.681366867600         0.063037272540
   16          0.309114526500        -0.043900847445
   17          0.309114526500        -0.028662513146
   18          0.309114526500        -0.043721659861
   19          0.052000000000        -0.654497584493
   20          0.052000000000        -0.427316252534
   21          0.052000000000        -0.651826158919
   22          8.294505948700         0.000000009266
 D 22
    1         30.000000000000        -0.000000098258
    2         27.000000000000         0.000000162419
    3         13.524730005000        -0.000000321152
    4          5.240288347200         0.000001656148
    5          1.130666124500        -0.000015577116
    6          0.516899669200         0.000007780847
    7          0.132229535400         0.000150272917
    8          0.047220318800        -0.000230702274
    9         15.500000000000         0.000000000491
   10         14.000000000000        -0.000000000749
   11         15.500000000000        -0.000000000423
   12         14.000000000000         0.000000000645
   13          8.294505948700        -0.003884989982
   14          6.306039743000         0.009172619982
   15          1.489010911000        -0.030765299229
   16          0.673153906100        -0.049343906701
   17          8.294505948700        -0.001235815671
   18          6.306039743000         0.002917811261
   19          1.489010911000        -0.009786444519
   20          0.673153906100        -0.015696301268
   21          8.294505948700        -0.007784885257
   22          6.306039743000         0.018380431966
 P 22
    1         15.500000000000         0.024321781696
    2         14.000000000000        -0.035232641613
    3          5.545829042000         0.045211127512
    4          1.413950221500        -0.082386191263
    5         15.500000000000         0.061103001241
    6         14.000000000000        -0.088514080552
    7          5.545829042000         0.113582780034
    8          1.413950221500        -0.206976758935
    9         15.500000000000        -0.064478622316
   10         14.000000000000         0.093404020321
   11          5.545829042000        -0.119857634268
   12          1.413950221500         0.218411141786
   13          0.681366867600        -0.274729858898
   14          0.681366867600        -0.690196923844
   15          0.681366867600         0.728326692186
   16          0.309114526500         0.493555745646
   17          0.309114526500         1.239947702651
   18          0.309114526500        -1.308448324756
   19          0.052000000000        -0.327594491758
   20          0.052000000000        -0.823007413123
   21          0.052000000000         0.868474266021
   22          8.294505948700         0.000000031793
 D 22
    1         15.500000000000         0.000000000715
    2         14.000000000000        -0.000000001090
    3          5.545829042000         0.000000002222
    4         15.500000000000        -0.000000000565
    5         14.000000000000         0.000000000861
    6          5.545829042000        -0.000000001754
    7         15.500000000000         0.000000002735
    8         14.000000000000        -0.000000004169
    9          5.545829042000         0.000000008500
   10          1.413950221500        -0.000000030676
   11          0.681366867600        -0.000000122398
   12          0.309114526500         0.000000306439
   13          8.294505948700         0.020269442239
   14          6.306039743000        -0.047856980773
   15          1.489010911000         0.160514044690
   16          0.673153906100         0.257445571604
   17          8.294505948700         0.019317317390
   18          6.306039743000        -0.045608975127
   19          1.489010911000         0.152974152433
   20          0.673153906100         0.245352474856
   21          8.294505948700        -0.036164870381
   22          6.306039743000         0.085386735663
 P 22
    1         15.500000000000         0.251259388206
    2         14.000000000000        -0.363975472161
    3          5.545829042000         0.467059542783
    4          1.413950221500        -0.851101464199
    5         15.500000000000         0.631232654316
    6         14.000000000000        -0.914406442833
    7          5.545829042000         1.173381966018
    8          1.413950221500        -2.138200845641
    9         15.500000000000        -0.666104959337
   10         14.000000000000         0.964922619666
   11          5.545829042000        -1.238205186974
   12          1.413950221500         2.256325267082
   13          0.681366867600         1.009706747881
   14          0.681366867600         2.536660918803
   15          0.681366867600        -2.676798176739
   16          0.309114526500        -0.472223182933
   17          0.309114526500        -1.186354449560
   18          0.309114526500         1.251894332430
   19          0.052000000000         0.113146965665
   20          0.052000000000         0.284256281823
   21          0.052000000000        -0.299959955732
   22          0.020765932000        -0.055394949231
 end
  // -----------------------------------------------
  // The basis set
  // -----------------------------------------------
  BAS[ATNO] = new BFNGauss[NSH];
  // Basis function   1 L = s
  InitBFNGauss(BAS[ATNO][  0]);
  BAS[ATNO][  0].l  = 0;
  BAS[ATNO][  0].ng = 8;
  BAS[ATNO][  0].a[  0] =        30.000000000000;     BAS[ATNO][  0].d[  0] =         0.325263185227;
  BAS[ATNO][  0].a[  1] =        27.000000000000;     BAS[ATNO][  0].d[  1] =        -0.483890313748;
  BAS[ATNO][  0].a[  2] =        13.524730005000;     BAS[ATNO][  0].d[  2] =         0.479276154299;
  BAS[ATNO][  0].a[  3] =         5.240288347200;     BAS[ATNO][  0].d[  3] =        -0.898104835855;
  BAS[ATNO][  0].a[  4] =         1.130666124500;     BAS[ATNO][  0].d[  4] =         0.983713675480;
  BAS[ATNO][  0].a[  5] =         0.516899669200;     BAS[ATNO][  0].d[  5] =         0.361806688616;
  BAS[ATNO][  0].a[  6] =         0.132229535400;     BAS[ATNO][  0].d[  6] =         0.001258305340;
  BAS[ATNO][  0].a[  7] =         0.047220318800;     BAS[ATNO][  0].d[  7] =         0.000127244269;

FINAL SINGLE POINT ENERGY       -89.217441961864

DIPOLE MOMENT
-------------
                                X             Y             Z
Electronic contribution:      0.00000       0.00000      -0.00000
Nuclear contribution   :      0.00000       0.00000       0.00000
                        -----------------------------------------
Total Dipole Moment    :      0.00000       0.00000      -0.00000
                        -----------------------------------------
Magnitude (a.u.)       :      0.00001
Magnitude (Debye)      :      0.00002

Rotational constants in cm-1:     0.000000     0.000000     0.000000
Rotational constants in MHz :     0.000000     0.000000     0.000000

                             ****ORCA TERMINATED NORMALLY****
TOTAL RUN TIME: 0 days 0 hours 0 minutes 1 seconds 651 msec
