                         Program Version 4.2.0 -  RELEASE  -
|  1> #
|  2> # 76_Os CCSD(T)/Def2-TZVPPD
|  3> #
|  4> ! CCSD(T) Def2-TZVPPD tightscf veryslowconv kdiis
|  5>
|  6> *xyz 0 5
|  7>  Os 0.0 0.0 0.0
|  8> *
|  9>
| 10> %maxcore 5000
| 11>
| 12> %pal
| 13> nprocs 24
| 14> end
| 15>
| 16> %method
| 17> NewNCore Os 60 end
| 18> end
| 19>
| 20>
| 21>                          ****END OF INPUT****

CARTESIAN COORDINATES (ANGSTROEM)
---------------------------------
  Os     0.000000    0.000000    0.000000

 Total Charge           Charge          ....    0
 Multiplicity           Mult            ....    5
 Number of Electrons    NEL             ....   16
 Basis Dimension        Dim             ....   59

ORBITAL ENERGIES
----------------
                 SPIN UP ORBITALS
  NO   OCC          E(Eh)            E(eV)
   0   1.0000      -3.944556      -107.3368
   1   1.0000      -2.254525       -61.3487
   2   1.0000      -2.254379       -61.3448
   3   1.0000      -2.254376       -61.3447
   4   1.0000      -0.393369       -10.7041
   5   1.0000      -0.393366       -10.7040
   6   1.0000      -0.393092       -10.6966
   7   1.0000      -0.357372        -9.7246
   8   1.0000      -0.356999        -9.7144
   9   1.0000      -0.290446        -7.9034
  10   0.0000       0.029197         0.7945
  11   0.0000       0.029326         0.7980
  12   0.0000       0.029327         0.7980
  13   0.0000       0.109988         2.9929
  14   0.0000       0.110202         2.9987

                 SPIN DOWN ORBITALS
  NO   OCC          E(Eh)            E(eV)
   0   1.0000      -3.804250      -103.5189
   1   1.0000      -2.058097       -56.0037
   2   1.0000      -2.057977       -56.0004
   3   1.0000      -2.057973       -56.0003
   4   1.0000      -0.285961        -7.7814
   5   1.0000      -0.285896        -7.7796
   6   0.0000       0.017289         0.4705
   7   0.0000       0.043704         1.1893
   8   0.0000       0.043716         1.1896
   9   0.0000       0.043717         1.1896
  10   0.0000       0.160089         4.3562

E(0)                                       ...    -89.815741160
E(0)                                       ...    -89.815741160
E(CORR)                                    ...     -0.406413761
E(TOT)                                     ...    -90.222154921
E(CCSD(T))                                 ...    -90.235725027

MULLIKEN ATOMIC CHARGES AND SPIN DENSITIES
------------------------------------------
   0 Os:   -0.000000    4.000000
Sum of atomic charges       :   -0.0000000

LOEWDIN ATOMIC CHARGES AND SPIN DENSITIES
-----------------------------------------
   0 Os:   -0.000000    4.000000

FINAL SINGLE POINT ENERGY       -90.235725027377

DIPOLE MOMENT
-------------
                                X             Y             Z
Electronic contribution:      0.00000       0.00000      -0.00000
Nuclear contribution   :      0.00000       0.00000       0.00000
                        -----------------------------------------
Total Dipole Moment    :      0.00000       0.00000      -0.00000
                        -----------------------------------------
Magnitude (a.u.)       :      0.00000
Magnitude (Debye)      :      0.00000

Rotational constants in cm-1:     0.000000     0.000000     0.000000
Rotational constants in MHz :     0.000000     0.000000     0.000000

                             ****ORCA TERMINATED NORMALLY****
TOTAL RUN TIME: 0 days 0 hours 0 minutes 12 seconds 58 msec
