                         Program Version 4.2.0 -  RELEASE  -
|  1> #
|  2> # 77_Ir CCSD(T)/Def2-TZVPPD
|  3> #
|  4> ! CCSD(T) Def2-TZVPPD tightscf slowconv
|  5>
|  6> *xyz 0 4
|  7>  Ir 0.0 0.0 0.0
|  8> *
|  9>
| 10> %maxcore 5000
| 11>
| 12> %pal
| 13> nprocs 24
| 14> end
| 15>
| 16> %method
| 17> NewNCore Ir 60 end
| 18> end
| 19>
| 20>
| 21>                          ****END OF INPUT****

CARTESIAN COORDINATES (ANGSTROEM)
---------------------------------
  Ir     0.000000    0.000000    0.000000

 Total Charge           Charge          ....    0
 Multiplicity           Mult            ....    4
 Number of Electrons    NEL             ....   17
 Basis Dimension        Dim             ....   59

ORBITAL ENERGIES
----------------
                 SPIN UP ORBITALS
  NO   OCC          E(Eh)            E(eV)
   0   1.0000      -4.206643      -114.4686
   1   1.0000      -2.416934       -65.7681
   2   1.0000      -2.416934       -65.7681
   3   1.0000      -2.416933       -65.7681
   4   1.0000      -0.430015       -11.7013
   5   1.0000      -0.430015       -11.7013
   6   1.0000      -0.391920       -10.6647
   7   1.0000      -0.391919       -10.6647
   8   1.0000      -0.391918       -10.6646
   9   1.0000      -0.291281        -7.9262
  10   0.0000       0.032798         0.8925
  11   0.0000       0.032798         0.8925
  12   0.0000       0.032798         0.8925
  13   0.0000       0.123612         3.3637
  14   0.0000       0.123612         3.3637

                 SPIN DOWN ORBITALS
  NO   OCC          E(Eh)            E(eV)
   0   1.0000      -4.104265      -111.6827
   1   1.0000      -2.278087       -61.9899
   2   1.0000      -2.278087       -61.9899
   3   1.0000      -2.278087       -61.9899
   4   1.0000      -0.338983        -9.2242
   5   1.0000      -0.338983        -9.2242
   6   1.0000      -0.338983        -9.2242
   7   0.0000       0.010286         0.2799
   8   0.0000       0.047508         1.2928
   9   0.0000       0.047508         1.2928
  10   0.0000       0.047508         1.2928
  11   0.0000       0.157300         4.2804

E(0)                                       ...   -103.439140314
E(0)                                       ...   -103.439140314
E(CORR)                                    ...     -0.457092270
E(TOT)                                     ...   -103.896232584
E(CCSD(T))                                 ...   -103.911656488

MULLIKEN ATOMIC CHARGES AND SPIN DENSITIES
------------------------------------------
   0 Ir:   -0.000000    3.000000
Sum of atomic charges       :   -0.0000000

LOEWDIN ATOMIC CHARGES AND SPIN DENSITIES
-----------------------------------------
   0 Ir:   -0.000000    3.000000

FINAL SINGLE POINT ENERGY      -103.911656488284

DIPOLE MOMENT
-------------
                                X             Y             Z
Electronic contribution:      0.00000       0.00000       0.00000
Nuclear contribution   :      0.00000       0.00000       0.00000
                        -----------------------------------------
Total Dipole Moment    :      0.00000       0.00000       0.00000
                        -----------------------------------------
Magnitude (a.u.)       :      0.00000
Magnitude (Debye)      :      0.00000

Rotational constants in cm-1:     0.000000     0.000000     0.000000
Rotational constants in MHz :     0.000000     0.000000     0.000000

                             ****ORCA TERMINATED NORMALLY****
TOTAL RUN TIME: 0 days 0 hours 0 minutes 32 seconds 154 msec
