                         Program Version 4.2.0 -  RELEASE  -
|  1> #
|  2> # 78_Pt CCSD(T)/Def2-TZVPPD
|  3> #
|  4> ! CCSD(T) Def2-TZVPPD tightscf veryslowconv kdiis
|  5>
|  6> *xyz 0 3
|  7>  Pt 0.0 0.0 0.0
|  8> *
|  9>
| 10> %maxcore 5000
| 11>
| 12> %pal
| 13> nprocs 24
| 14> end
| 15>
| 16> %method
| 17> NewNCore Pt 60 end
| 18> end
| 19>
| 20>
| 21>                          ****END OF INPUT****

CARTESIAN COORDINATES (ANGSTROEM)
---------------------------------
  Pt     0.000000    0.000000    0.000000

 Total Charge           Charge          ....    0
 Multiplicity           Mult            ....    3
 Number of Electrons    NEL             ....   18
 Basis Dimension        Dim             ....   59

ORBITAL ENERGIES
----------------
                 SPIN UP ORBITALS
  NO   OCC          E(Eh)            E(eV)
   0   1.0000      -4.462704      -121.4364
   1   1.0000      -2.590339       -70.4867
   2   1.0000      -2.589729       -70.4701
   3   1.0000      -2.534852       -68.9768
   4   1.0000      -0.481814       -13.1108
   5   1.0000      -0.440726       -11.9928
   6   1.0000      -0.421025       -11.4567
   7   1.0000      -0.420835       -11.4515
   8   1.0000      -0.416569       -11.3354
   9   1.0000      -0.290271        -7.8987
  10   0.0000       0.030092         0.8188
  11   0.0000       0.030131         0.8199
  12   0.0000       0.034449         0.9374
  13   0.0000       0.115084         3.1316
  14   0.0000       0.115170         3.1339

                 SPIN DOWN ORBITALS
  NO   OCC          E(Eh)            E(eV)
   0   1.0000      -4.405329      -119.8751
   1   1.0000      -2.522609       -68.6437
   2   1.0000      -2.485651       -67.6380
   3   1.0000      -2.485205       -67.6259
   4   1.0000      -0.418899       -11.3988
   5   1.0000      -0.384269       -10.4565
   6   1.0000      -0.383874       -10.4458
   7   1.0000      -0.372175       -10.1274
   8   0.0000       0.001839         0.0500
   9   0.0000       0.042942         1.1685
  10   0.0000       0.042957         1.1689
  11   0.0000       0.044496         1.2108
  12   0.0000       0.115846         3.1523

E(0)                                       ...   -118.399841149
E(0)                                       ...   -118.399841149
E(CORR)                                    ...     -0.502965677
E(TOT)                                     ...   -118.902806826
E(CCSD(T))                                 ...   -118.919801689

MULLIKEN ATOMIC CHARGES AND SPIN DENSITIES
------------------------------------------
   0 Pt:    0.000000    2.000000
Sum of atomic charges       :    0.0000000

LOEWDIN ATOMIC CHARGES AND SPIN DENSITIES
-----------------------------------------
   0 Pt:    0.000000    2.000000

FINAL SINGLE POINT ENERGY      -118.919801688912

DIPOLE MOMENT
-------------
                                X             Y             Z
Electronic contribution:     -0.00000       0.00000       0.00000
Nuclear contribution   :      0.00000       0.00000       0.00000
                        -----------------------------------------
Total Dipole Moment    :     -0.00000       0.00000       0.00000
                        -----------------------------------------
Magnitude (a.u.)       :      0.00000
Magnitude (Debye)      :      0.00000

Rotational constants in cm-1:     0.000000     0.000000     0.000000
Rotational constants in MHz :     0.000000     0.000000     0.000000

                             ****ORCA TERMINATED NORMALLY****
TOTAL RUN TIME: 0 days 0 hours 0 minutes 16 seconds 429 msec
