                         Program Version 4.2.0 -  RELEASE  -
|  1> # input to generate an atomic fitting density for Pt
|  2> # this file is use internally by ORCA
|  3> #
|  4> # atomic ground state (S=3): 1s2 2s2 2p6 3s2 3p6 4s2 3d10 4p6 5s2 4d10 5p6 6s2 4f14 5d8
|  5> #
|  6> ! RHF AllowRHF def2-SVP def2/J  NoMulliken NoLoewdin NoMayer NoPrintMOs
|  7>
|  8> %output print[p_atomdensfit] 2 end
|  9>
| 10> %scf
| 11>   guess hcore
| 12>   maxiter 1000
| 13>   maxdisk 500000
| 14>   SCFMode Conventional
| 15>   lshift 1.000000
| 16>   hftyp rohf
| 17>   rohf_case sahf
| 18>   rohf_numop   2
| 19>   rohf_norb[1] 5
| 20>   rohf_nel[1]  8
| 21> end
| 22>
| 23> %basis
| 24>   NewECP 78
| 25>     N_core 60
| 26>     lmax f
| 27>     s 3
| 28>       1      13.4286513000    579.2238609000  2
| 29>       2       6.7143256000     29.6694906000  2
| 30>       3       3.3095686000    -24.3143757000  2
| 31>     p 3
| 32>       1      10.3659442000    280.8607742000  2
| 33>       2       5.1829721000     26.7453820000  2
| 34>       3       3.3095686000    -24.3143757000  2
| 35>     d 3
| 36>       1       7.6004795000    120.3964443000  2
| 37>       2       3.8002397000     15.8109206000  2
| 38>       3       3.3095686000    -24.3143757000  2
| 39>     f 1
| 40>       1       3.3095686000     24.3143757000  2
| 41>   end
| 42>   NewGTO 78
| 43>     s 3
| 44>      1      30.0000000000      0.9054938287
| 45>      2      27.0000000000     -1.4084167449
| 46>      3      14.4083185640      1.4796209021
| 47>     s 1
| 48>      1       5.5335788010      1.0000000000
| 49>     s 1
| 50>      1       1.2986438223      1.0000000000
| 51>     s 1
| 52>      1       0.5875939311      1.0000000000
| 53>     s 1
| 54>      1       0.1384558726      1.0000000000
| 55>     s 1
| 56>      1       0.0492044599      1.0000000000
| 57>     p 4
| 58>      1      15.5000000000     -0.3478541841
| 59>      2      14.0000000000      0.5294237528
| 60>      3       6.1161212339     -0.6889598464
| 61>      4       1.5715586385      1.2534233823
| 62>     p 1
| 63>      1       0.7513251078      1.0000000000
| 64>     p 1
| 65>      1       0.3330646681      1.0000000000
| 66>     p 1
| 67>      1       0.0570000000      1.0000000000
| 68>     d 4
| 69>      1       8.3207937611      0.1635155571
| 70>      2       7.4207226520     -0.2345009785
| 71>      3       1.6570410639      0.4367423536
| 72>      4       0.7394356996      0.6506097943
| 73>     d 1
| 74>      1       0.3051085601      1.0000000000
| 75>     d 1
| 76>      1       0.1135040527      1.0000000000
| 77>     p 1
| 78>      1       0.0204415325      1.0000000000
| 79>   end
| 80>   NewAuxGTO 78
| 81>     S 1
| 82>      1 1310.72 1.0
| 83>     S 1
| 84>      1  655.36 1.0
| 85>     S 1
| 86>      1  327.68 1.0
| 87>     S 1
| 88>      1  163.84 1.0
| 89>     S 1
| 90>      1   81.82 1.0
| 91>     S 1
| 92>      1   40.96 1.0
| 93>     S 1
| 94>      1   20.48 1.0
| 95>     S 1
| 96>      1   10.24 1.0
| 97>     S 1
| 98>      1    5.12 1.0
| 99>     S 1
|100>      1    2.56 1.0
|101>     S 1
|102>      1    1.28 1.0
|103>     S 1
|104>      1    0.64 1.0
|105>     S 1
|106>      1    0.32 1.0
|107>     S 1
|108>      1    0.16 1.0
|109>     S 1
|110>      1    0.08 1.0
|111>     S 1
|112>      1    0.04 1.0
|113>     S 1
|114>      1    0.02 1.0
|115>     S 1
|116>      1    0.01 1.0
|117>   end
|118> end
|119>
|120> * xyz 0 3
|121> 78  0.0 0.0 0.0
|122> *
|123>
|124>
|125>                          ****END OF INPUT****

CARTESIAN COORDINATES (ANGSTROEM)
---------------------------------
  Pt     0.000000    0.000000    0.000000

 Total Charge           Charge          ....    0
 Multiplicity           Mult            ....    3
 Number of Electrons    NEL             ....   18
 Basis Dimension        Dim             ....   36

ORBITAL ENERGIES
----------------

  NO   OCC          E(Eh)            E(eV)
   0   2.0000      -4.504415      -122.5714
   1   2.0000      -2.596988       -70.6676
   2   2.0000      -2.595675       -70.6319
   3   2.0000      -2.591588       -70.5207
   4   2.0000      -0.458814       -12.4850
   5   1.6000      -0.476829       -12.9752
   6   1.6000      -0.476601       -12.9690
   7   1.6000      -0.466375       -12.6907
   8   1.6000      -0.463076       -12.6009
   9   1.6000      -0.307949        -8.3797
  10   0.0000       0.005249         0.1428
  11   0.0000       0.005660         0.1540
  12   0.0000       0.006913         0.1881
  13   0.0000       0.082148         2.2354
  14   0.0000       0.082915         2.2562

CleanUpVectors: The p-vectors have cracked symmetry
CleanUpVectors: The p-vectors have cracked symmetry
CleanUpVectors: The p-vectors have cracked symmetry
CleanUpVectors: The d-vectors have cracked symmetry at i=4
CleanUpVectors: The d-vectors have cracked symmetry at i=5
CleanUpVectors: The d-vectors have cracked symmetry at i=6
CleanUpVectors: The d-vectors have cracked symmetry at i=7
CleanUpVectors: The d-vectors have cracked symmetry at i=8
CleanUpVectors: The p-vectors have cracked symmetry
CleanUpVectors: The p-vectors have cracked symmetry
CleanUpVectors: The p-vectors have cracked symmetry
CleanUpVectors: The p-vectors have cracked symmetry
CleanUpVectors: The p-vectors have cracked symmetry
CleanUpVectors: The p-vectors have cracked symmetry
CleanUpVectors: The d-vectors have cracked symmetry at i=17
CleanUpVectors: The d-vectors have cracked symmetry at i=18
CleanUpVectors: The d-vectors have cracked symmetry at i=19
CleanUpVectors: The d-vectors have cracked symmetry at i=20
CleanUpVectors: The d-vectors have cracked symmetry at i=21
CleanUpVectors: The p-vectors have cracked symmetry
CleanUpVectors: The p-vectors have cracked symmetry
CleanUpVectors: The p-vectors have cracked symmetry
CleanUpVectors: The d-vectors have cracked symmetry at i=25
CleanUpVectors: The d-vectors have cracked symmetry at i=26
CleanUpVectors: The d-vectors have cracked symmetry at i=27
CleanUpVectors: The d-vectors have cracked symmetry at i=28
CleanUpVectors: The d-vectors have cracked symmetry at i=29
CleanUpVectors: The p-vectors have cracked symmetry
CleanUpVectors: The p-vectors have cracked symmetry
CleanUpVectors: The p-vectors have cracked symmetry
--------------------------
ATOM BASIS FOR ELEMENT Pt
--------------------------
 NewGTO Pt
 S 8
    1         30.000000000000        -0.271399459173
    2         27.000000000000         0.422138208722
    3         14.408318564000        -0.443479900010
    4          5.533578801000         0.885103887283
    5          1.298643822300        -0.961820233500
    6          0.587593931100        -0.397374564130
    7          0.138455872600        -0.012022514208
    8          0.049204459900        -0.000584051238
 P 22
    1         15.500000000000        -0.071076292529
    2         14.000000000000         0.108176009505
    3          6.116121233900        -0.140773674204
    4          1.571558638500         0.256109286749
    5         15.500000000000        -0.140062008019
    6         14.000000000000         0.213170222754
    7          6.116121233900        -0.277406752433
    8          1.571558638500         0.504685594850
    9         15.500000000000        -0.010078730090
   10         14.000000000000         0.015339528319
   11          6.116121233900        -0.019961928452
   12          1.571558638500         0.036316699745
   13          0.751325107800         0.221446600399
   14          0.751325107800         0.436379760643
   15          0.751325107800         0.031401476293
   16          0.333064668100         0.052323776900
   17          0.333064668100         0.103108547155
   18          0.333064668100         0.007419593875
   19          0.057000000000         0.001937805502
   20          0.057000000000         0.003818614058
   21          0.057000000000         0.000274783869
   22          0.020441532500        -0.000596044037
 D 22
    1         30.000000000000         0.000007586032
    2         27.000000000000        -0.000013110457
    3         14.408318564000         0.000025809974
    4          5.533578801000        -0.000142550211
    5          1.298643822300         0.001200075223
    6          0.587593931100        -0.001089993936
    7          0.138455872600        -0.007872603616
    8          0.049204459900         0.029834463814
    9          8.320793761100        -0.063933267516
   10          7.420722652000         0.091687996281
   11          1.657041063900        -0.170762747127
   12          0.739435699600        -0.254383196103
   13          8.320793761100         0.011179697291
   14          7.420722652000        -0.016033030744
   15          1.657041063900         0.029860445049
   16          0.739435699600         0.044482743318
   17          8.320793761100        -0.003990575962
   18          7.420722652000         0.005722965964
   19          1.657041063900        -0.010658640491
   20          0.739435699600        -0.015878047642
   21          8.320793761100        -0.094140255541
   22          7.420722652000         0.135008450768
 S 8
    1         30.000000000000        -1.903168204227
    2         27.000000000000         2.960212297684
    3         14.408318564000        -3.109869295552
    4          5.533578801000         3.500144353456
    5          1.298643822300        -2.128542614930
    6          0.587593931100         1.355150678771
    7          0.138455872600        -0.421423404688
    8          0.049204459900         0.159239523726
 S 8
    1         30.000000000000        -1.799230602524
    2         27.000000000000         2.798546415463
    3         14.408318564000        -2.940030205413
    4          5.533578801000         1.425739440655
    5          1.298643822300        -0.674641999540
    6          0.587593931100         0.418484636368
    7          0.138455872600        -0.129713334408
    8          0.049204459900         0.049150412974
 D 22
    1          8.320793761100        -0.080521079168
    2          7.420722652000         0.115476913571
    3          1.657041063900        -0.215068010983
    4          0.739435699600        -0.320384211041
    5          8.320793761100        -0.068045553263
    6          7.420722652000         0.097585508717
    7          1.657041063900        -0.181746468723
    8          0.739435699600        -0.270745513128
    9          8.320793761100        -0.006222746887
   10          7.420722652000         0.008924167583
   11          1.657041063900        -0.016620663927
   12          0.739435699600        -0.024759601742
   13          8.320793761100         0.046384090247
   14          7.420722652000        -0.066520365051
   15          1.657041063900         0.123889720974
   16          0.739435699600         0.184557016773
   17          8.320793761100         0.004069553706
   18          7.420722652000        -0.005836229550
   19          1.657041063900         0.010869586328
   20          0.739435699600         0.016192291099
   21          0.305108560100        -0.238840873926
   22          0.305108560100        -0.201836085358
 P 22
    1         15.500000000000         0.000291993490
    2         14.000000000000        -0.000444405433
    3          6.116121233900         0.000578322180
    4          1.571558638500        -0.001052140479
    5         15.500000000000         0.000777790958
    6         14.000000000000        -0.001183774773
    7          6.116121233900         0.001540492435
    8          1.571558638500        -0.002802615055
    9         15.500000000000        -0.012867968181
   10         14.000000000000         0.019584665979
   11          6.116121233900        -0.025486292207
   12          1.571558638500         0.046367164570
   13          0.751325107800        -0.001981352313
   14          0.751325107800        -0.005277781753
   15          0.751325107800         0.087316941609
   16          0.333064668100         0.001745863534
   17          0.333064668100         0.004650503923
   18          0.333064668100        -0.076939100270
   19          0.057000000000         0.000287526069
   20          0.057000000000         0.000765890967
   21          0.057000000000        -0.012671091753
   22          0.020441532500         0.022236936179
 P 22
    1         15.500000000000         0.000679907406
    2         14.000000000000        -0.001034798910
    3          6.116121233900         0.001346624314
    4          1.571558638500        -0.002449911140
    5         15.500000000000         0.001811087750
    6         14.000000000000        -0.002756421849
    7          6.116121233900         0.003587039613
    8          1.571558638500        -0.006525894576
    9         15.500000000000        -0.029963088799
   10         14.000000000000         0.045602932615
   11          6.116121233900        -0.059344880700
   12          1.571558638500         0.107966032386
   13          0.751325107800        -0.003629571882
   14          0.751325107800        -0.009668188805
   15          0.751325107800         0.159952934193
   16          0.333064668100         0.000943500008
   17          0.333064668100         0.002513226494
   18          0.333064668100        -0.041579447823
   19          0.057000000000         0.033165695603
   20          0.057000000000         0.088344360540
   21          0.057000000000        -1.461591201026
   22          0.020441532500        -0.024886927090
 D 22
    1          8.320793761100        -0.024809045566
    2          7.420722652000         0.035579155672
    3          1.657041063900        -0.066263792529
    4          0.739435699600        -0.098712369139
    5          8.320793761100        -0.020965258397
    6          7.420722652000         0.030066702494
    7          1.657041063900        -0.055997217992
    8          0.739435699600        -0.083418377399
    9          8.320793761100        -0.001917267039
   10          7.420722652000         0.002749591566
   11          1.657041063900        -0.005120929984
   12          0.739435699600        -0.007628587372
   13          8.320793761100         0.014291226849
   14          7.420722652000        -0.020495338422
   15          1.657041063900         0.038171193986
   16          0.739435699600         0.056863165349
   17          8.320793761100         0.001253854821
   18          7.420722652000        -0.001798178643
   19          1.657041063900         0.003348987188
   20          0.739435699600         0.004988945651
   21          0.305108560100        -0.310981474061
   22          0.305108560100        -0.262799588277
 P 22
    1         15.500000000000        -0.082446392567
    2         14.000000000000         0.125480964590
    3          6.116121233900        -0.163293289417
    4          1.571558638500         0.297079181315
    5         15.500000000000         0.041791349350
    6         14.000000000000        -0.063605194414
    7          6.116121233900         0.082771928425
    8          1.571558638500        -0.150586817256
    9         15.500000000000         0.000655202408
   10         14.000000000000        -0.000997198636
   11          6.116121233900         0.001297693606
   12          1.571558638500        -0.002360891593
   13          0.751325107800         0.943911312923
   14          0.751325107800        -0.478460320765
   15          0.751325107800        -0.007501273813
   16          0.333064668100        -1.669200433775
   17          0.333064668100         0.846102980260
   18          0.333064668100         0.013265154608
   19          0.057000000000         0.821716075861
   20          0.057000000000        -0.416520632661
   21          0.057000000000        -0.006530186890
   22          0.020441532500        -0.374433514951
 D 22
    1          8.320793761100        -0.126237480683
    2          7.420722652000         0.181039732663
    3          1.657041063900        -0.337174366794
    4          0.739435699600        -0.502284570330
    5          8.320793761100        -0.106678888356
    6          7.420722652000         0.152990358523
    7          1.657041063900        -0.284934287638
    8          0.739435699600        -0.424463157148
    9          8.320793761100        -0.009755754618
   10          7.420722652000         0.013990925662
   11          1.657041063900        -0.026057161218
   12          0.739435699600        -0.038817037460
   13          8.320793761100         0.072718979392
   14          7.420722652000        -0.104287763962
   15          1.657041063900         0.194228969858
   16          0.739435699600         0.289340543880
   17          8.320793761100         0.006380071066
   18          7.420722652000        -0.009149789381
   19          1.657041063900         0.017040869402
   20          0.739435699600         0.025385576747
   21          0.305108560100         1.148463430392
   22          0.305108560100         0.970526355634
 P 22
    1         15.500000000000        -0.807945921846
    2         14.000000000000         1.229669733914
    3          6.116121233900        -1.600217342950
    4          1.571558638500         2.911272470951
    5         15.500000000000         0.409540662667
    6         14.000000000000        -0.623308743904
    7          6.116121233900         0.811136059138
    8          1.571558638500        -1.475698341584
    9         15.500000000000         0.006420755291
   10         14.000000000000        -0.009772199149
   11          6.116121233900         0.012716945149
   12          1.571558638500        -0.023135914936
   13          0.751325107800        -3.410480918930
   14          0.751325107800         1.728742701443
   15          0.751325107800         0.027103130064
   16          0.333064668100         1.574708735976
   17          0.333064668100        -0.798205971218
   18          0.333064668100        -0.012514227963
   19          0.057000000000        -0.360438245248
   20          0.057000000000         0.182702967882
   21          0.057000000000         0.002864406772
   22          0.020441532500         0.162576684811
 end
  // -----------------------------------------------
  // The basis set
  // -----------------------------------------------
  BAS[ATNO] = new BFNGauss[NSH];
  // Basis function   1 L = s
  InitBFNGauss(BAS[ATNO][  0]);
  BAS[ATNO][  0].l  = 0;
  BAS[ATNO][  0].ng = 8;
  BAS[ATNO][  0].a[  0] =        30.000000000000;     BAS[ATNO][  0].d[  0] =         0.271399459173;
  BAS[ATNO][  0].a[  1] =        27.000000000000;     BAS[ATNO][  0].d[  1] =        -0.422138208722;
  BAS[ATNO][  0].a[  2] =        14.408318564000;     BAS[ATNO][  0].d[  2] =         0.443479900010;
  BAS[ATNO][  0].a[  3] =         5.533578801000;     BAS[ATNO][  0].d[  3] =        -0.885103887283;
  BAS[ATNO][  0].a[  4] =         1.298643822300;     BAS[ATNO][  0].d[  4] =         0.961820233500;
  BAS[ATNO][  0].a[  5] =         0.587593931100;     BAS[ATNO][  0].d[  5] =         0.397374564130;
  BAS[ATNO][  0].a[  6] =         0.138455872600;     BAS[ATNO][  0].d[  6] =         0.012022514208;
  BAS[ATNO][  0].a[  7] =         0.049204459900;     BAS[ATNO][  0].d[  7] =         0.000584051238;

FINAL SINGLE POINT ENERGY      -118.366219782085

DIPOLE MOMENT
-------------
                                X             Y             Z
Electronic contribution:     -0.00000       0.00000       0.00000
Nuclear contribution   :      0.00000       0.00000       0.00000
                        -----------------------------------------
Total Dipole Moment    :     -0.00000       0.00000       0.00000
                        -----------------------------------------
Magnitude (a.u.)       :      0.00000
Magnitude (Debye)      :      0.00000

Rotational constants in cm-1:     0.000000     0.000000     0.000000
Rotational constants in MHz :     0.000000     0.000000     0.000000

                             ****ORCA TERMINATED NORMALLY****
TOTAL RUN TIME: 0 days 0 hours 0 minutes 1 seconds 276 msec
