                         Program Version 4.2.0 -  RELEASE  -
|  1> #
|  2> # 79_Au CCSD(T)/Def2-TZVPPD
|  3> #
|  4> ! CCSD(T) Def2-TZVPPD tightscf slowconv
|  5>
|  6> *xyz 0 2
|  7>  Au 0.0 0.0 0.0
|  8> *
|  9>
| 10> %maxcore 5000
| 11>
| 12> %pal
| 13> nprocs 24
| 14> end
| 15>
| 16> %method
| 17> NewNCore Au 60 end
| 18> end
| 19>
| 20>
| 21>                          ****END OF INPUT****

CARTESIAN COORDINATES (ANGSTROEM)
---------------------------------
  Au     0.000000    0.000000    0.000000

 Total Charge           Charge          ....    0
 Multiplicity           Mult            ....    2
 Number of Electrons    NEL             ....   19
 Basis Dimension        Dim             ....   59

ORBITAL ENERGIES
----------------
                 SPIN UP ORBITALS
  NO   OCC          E(Eh)            E(eV)
   0   1.0000      -4.688714      -127.5864
   1   1.0000      -2.724272       -74.1312
   2   1.0000      -2.724272       -74.1312
   3   1.0000      -2.724272       -74.1312
   4   1.0000      -0.457707       -12.4548
   5   1.0000      -0.457707       -12.4548
   6   1.0000      -0.457707       -12.4548
   7   1.0000      -0.457707       -12.4548
   8   1.0000      -0.457707       -12.4548
   9   1.0000      -0.292102        -7.9485
  10   0.0000       0.054537         1.4840
  11   0.0000       0.054537         1.4840
  12   0.0000       0.054537         1.4840
  13   0.0000       0.239125         6.5069
  14   0.0000       0.292970         7.9721

                 SPIN DOWN ORBITALS
  NO   OCC          E(Eh)            E(eV)
   0   1.0000      -4.687288      -127.5476
   1   1.0000      -2.728283       -74.2404
   2   1.0000      -2.728283       -74.2404
   3   1.0000      -2.728283       -74.2404
   4   1.0000      -0.449197       -12.2233
   5   1.0000      -0.449197       -12.2233
   6   1.0000      -0.449197       -12.2233
   7   1.0000      -0.449197       -12.2233
   8   1.0000      -0.449197       -12.2233
   9   0.0000      -0.004728        -0.1287
  10   0.0000       0.084623         2.3027
  11   0.0000       0.084623         2.3027
  12   0.0000       0.084623         2.3027
  13   0.0000       0.282620         7.6905

E(0)                                       ...   -134.789864699
E(0)                                       ...   -134.789864699
E(CORR)                                    ...     -0.551308283
E(TOT)                                     ...   -135.341172982
E(CCSD(T))                                 ...   -135.359906580

MULLIKEN ATOMIC CHARGES AND SPIN DENSITIES
------------------------------------------
   0 Au:    0.000000    1.000000
Sum of atomic charges       :    0.0000000

LOEWDIN ATOMIC CHARGES AND SPIN DENSITIES
-----------------------------------------
   0 Au:   -0.000000    1.000000

FINAL SINGLE POINT ENERGY      -135.359906579856

DIPOLE MOMENT
-------------
                                X             Y             Z
Electronic contribution:      0.00000      -0.00000       0.00000
Nuclear contribution   :      0.00000       0.00000       0.00000
                        -----------------------------------------
Total Dipole Moment    :      0.00000      -0.00000       0.00000
                        -----------------------------------------
Magnitude (a.u.)       :      0.00000
Magnitude (Debye)      :      0.00000

Rotational constants in cm-1:     0.000000     0.000000     0.000000
Rotational constants in MHz :     0.000000     0.000000     0.000000

                             ****ORCA TERMINATED NORMALLY****
TOTAL RUN TIME: 0 days 0 hours 0 minutes 21 seconds 437 msec
