                         Program Version 4.2.0 -  RELEASE  -
|  1> #
|  2> # 80_Hg CCSD(T)/Def2-TZVPPD
|  3> #
|  4> ! CCSD(T) Def2-TZVPPD tightscf slowconv
|  5>
|  6> *xyz 0 1
|  7>  Hg 0.0 0.0 0.0
|  8> *
|  9>
| 10> %maxcore 5000
| 11>
| 12> %pal
| 13> nprocs 24
| 14> end
| 15>
| 16> %method
| 17> NewNCore Hg 60 end
| 18> end
| 19>
| 20>
| 21>                          ****END OF INPUT****

CARTESIAN COORDINATES (ANGSTROEM)
---------------------------------
  Hg     0.000000    0.000000    0.000000

 Total Charge           Charge          ....    0
 Multiplicity           Mult            ....    1
 Number of Electrons    NEL             ....   20
 Basis Dimension        Dim             ....   62

ORBITAL ENERGIES
----------------

  NO   OCC          E(Eh)            E(eV)
   0   2.0000      -5.043560      -137.2422
   1   2.0000      -3.031602       -82.4941
   2   2.0000      -3.031602       -82.4941
   3   2.0000      -3.031602       -82.4941
   4   2.0000      -0.604047       -16.4370
   5   2.0000      -0.604047       -16.4370
   6   2.0000      -0.604047       -16.4370
   7   2.0000      -0.604047       -16.4370
   8   2.0000      -0.604047       -16.4370
   9   2.0000      -0.326825        -8.8934
  10   0.0000       0.043156         1.1743
  11   0.0000       0.043156         1.1743
  12   0.0000       0.043156         1.1743
  13   0.0000       0.155785         4.2391
  14   0.0000       0.155785         4.2391

E(0)                                       ...   -152.554327949
E(0)                                       ...   -152.554327949
E(CORR)                                    ...     -0.609953465
E(TOT)                                     ...   -153.164281414
E(CCSD(T))                                 ...   -153.184894251

MULLIKEN ATOMIC CHARGES
-----------------------
   0 Hg:   -0.000000
Sum of atomic charges:   -0.0000000

LOEWDIN ATOMIC CHARGES
----------------------
   0 Hg:   -0.000000

FINAL SINGLE POINT ENERGY      -153.184894251362

DIPOLE MOMENT
-------------
                                X             Y             Z
Electronic contribution:      0.00000       0.00000      -0.00000
Nuclear contribution   :      0.00000       0.00000       0.00000
                        -----------------------------------------
Total Dipole Moment    :      0.00000       0.00000      -0.00000
                        -----------------------------------------
Magnitude (a.u.)       :      0.00000
Magnitude (Debye)      :      0.00000

Rotational constants in cm-1:     0.000000     0.000000     0.000000
Rotational constants in MHz :     0.000000     0.000000     0.000000

                             ****ORCA TERMINATED NORMALLY****
TOTAL RUN TIME: 0 days 0 hours 0 minutes 12 seconds 211 msec
