                         Program Version 4.2.0 -  RELEASE  -
|  1> # input to generate an atomic fitting density for Hg
|  2> # this file is use internally by ORCA
|  3> #
|  4> # atomic ground state (S=1): 1s2 2s2 2p6 3s2 3p6 4s2 3d10 4p6 5s2 4d10 5p6 6s2 4f14 5d10
|  5> #
|  6> ! RHF AllowRHF def2-SVP def2/J  NoMulliken NoLoewdin NoMayer NoPrintMOs
|  7>
|  8> %output print[p_atomdensfit] 2 end
|  9>
| 10> %scf
| 11>   guess hcore
| 12>   maxiter 1000
| 13>   maxdisk 500000
| 14>   SCFMode Conventional
| 15>   lshift 1.000000
| 16>   hftyp rohf
| 17>   rohf_case sahf
| 18>   rohf_numop   2
| 19>   rohf_norb[1] 5
| 20>   rohf_nel[1]  10
| 21> end
| 22>
| 23> %basis
| 24>   NewECP 80
| 25>     N_core 60
| 26>     lmax f
| 27>     s 3
| 28>       1      12.9815487000    275.7372117000  2
| 29>       2       6.4907744000     49.0892125000  2
| 30>       3       3.8857911000    -30.3649964000  2
| 31>     p 3
| 32>       1      10.5380958000    241.5400740000  2
| 33>       2       5.2690479000     27.3965908000  2
| 34>       3       3.8857911000    -30.3649964000  2
| 35>     d 3
| 36>       1       8.1017205000    127.8670076000  2
| 37>       2       4.0508603000     16.6083115000  2
| 38>       3       3.8857911000    -30.3649964000  2
| 39>     f 1
| 40>       1       3.8857911000     30.3649964000  2
| 41>   end
| 42>   NewGTO 80
| 43>     s 3
| 44>      1      48.0137869900      0.0289798220
| 45>      2      21.2398750950     -0.8656835524
| 46>      3      15.8761008790      1.8193112096
| 47>     s 1
| 48>      1       5.5180531820      1.0000000000
| 49>     s 1
| 50>      1       1.5099145479      1.0000000000
| 51>     s 1
| 52>      1       0.7068348216      1.0000000000
| 53>     s 1
| 54>      1       0.1626626558      1.0000000000
| 55>     s 1
| 56>      1       0.0569605891      1.0000000000
| 57>     p 4
| 58>      1      17.5000000000     -0.2060509577
| 59>      2      15.2525948550      0.3652916199
| 60>      3       6.4404715169     -0.7215344055
| 61>      4       1.8180159920      1.2955770587
| 62>     p 1
| 63>      1       0.9006798180      1.0000000000
| 64>     p 1
| 65>      1       0.4130454012      1.0000000000
| 66>     p 1
| 67>      1       0.1184570265      1.0000000000
| 68>     p 1
| 69>      1       0.0360876193      1.0000000000
| 70>     d 4
| 71>      1      10.0281977010      0.0565424472
| 72>      2       7.5920661493     -0.1342297359
| 73>      3       1.9144256118      0.4413812282
| 74>      4       0.8864155210      0.6453713071
| 75>     d 1
| 76>      1       0.3815423532      1.0000000000
| 77>     d 1
| 78>      1       0.1488074009      1.0000000000
| 79>     p 1
| 80>      1       0.0602993078      1.0000000000
| 81>   end
| 82>   NewAuxGTO 80
| 83>     S 1
| 84>      1 1310.72 1.0
| 85>     S 1
| 86>      1  655.36 1.0
| 87>     S 1
| 88>      1  327.68 1.0
| 89>     S 1
| 90>      1  163.84 1.0
| 91>     S 1
| 92>      1   81.82 1.0
| 93>     S 1
| 94>      1   40.96 1.0
| 95>     S 1
| 96>      1   20.48 1.0
| 97>     S 1
| 98>      1   10.24 1.0
| 99>     S 1
|100>      1    5.12 1.0
|101>     S 1
|102>      1    2.56 1.0
|103>     S 1
|104>      1    1.28 1.0
|105>     S 1
|106>      1    0.64 1.0
|107>     S 1
|108>      1    0.32 1.0
|109>     S 1
|110>      1    0.16 1.0
|111>     S 1
|112>      1    0.08 1.0
|113>     S 1
|114>      1    0.04 1.0
|115>     S 1
|116>      1    0.02 1.0
|117>     S 1
|118>      1    0.01 1.0
|119>   end
|120> end
|121>
|122> * xyz 0 1
|123> 80  0.0 0.0 0.0
|124> *
|125>
|126>
|127>                          ****END OF INPUT****

CARTESIAN COORDINATES (ANGSTROEM)
---------------------------------
  Hg     0.000000    0.000000    0.000000

 Total Charge           Charge          ....    0
 Multiplicity           Mult            ....    1
 Number of Electrons    NEL             ....   20
 Basis Dimension        Dim             ....   39

ORBITAL ENERGIES
----------------

  NO   OCC          E(Eh)            E(eV)
   0   2.0000      -4.874342      -132.6376
   1   2.0000      -3.031621       -82.4946
   2   2.0000      -3.031621       -82.4946
   3   2.0000      -3.031621       -82.4946
   4   2.0000      -0.604053       -16.4371
   5   2.0000      -0.604061       -16.4373
   6   2.0000      -0.604059       -16.4373
   7   2.0000      -0.604058       -16.4373
   8   2.0000      -0.604058       -16.4372
   9   2.0000      -0.496079       -13.4990
  10   0.0000       0.043157         1.1744
  11   0.0000       0.043157         1.1744
  12   0.0000       0.043158         1.1744
  13   0.0000       0.155784         4.2391
  14   0.0000       0.155784         4.2391

CleanUpVectors: The d-vectors have cracked symmetry at i=4
CleanUpVectors: The d-vectors have cracked symmetry at i=5
CleanUpVectors: The d-vectors have cracked symmetry at i=6
CleanUpVectors: The d-vectors have cracked symmetry at i=7
CleanUpVectors: The d-vectors have cracked symmetry at i=8
--------------------------
ATOM BASIS FOR ELEMENT Hg
--------------------------
 NewGTO Hg
 S 8
    1         48.013786990000        -0.005998469188
    2         21.239875095000         0.179185921685
    3         15.876100879000        -0.376575198895
    4          5.518053182000         0.835164045792
    5          1.509914547900        -0.991522160166
    6          0.706834821600        -0.507725654690
    7          0.162662655800         0.108923051538
    8          0.056960589100         0.107374769761
 D 23
    1         48.013786990000         0.000000000094
    2         21.239875095000        -0.000000006345
    3         15.876100879000         0.000000017839
    4          5.518053182000        -0.000000123516
    5          1.509914547900         0.000000742911
    6          0.706834821600         0.000000801335
    7          0.162662655800        -0.000008713901
    8          0.056960589100        -0.000020415096
    9         10.028197701000        -0.023968199414
   10          7.592066149300         0.056899643305
   11          1.914425611800        -0.187100378898
   12          0.886415521000        -0.273571253995
   13         10.028197701000        -0.014390902442
   14          7.592066149300         0.034163484776
   15          1.914425611800        -0.112338154946
   16          0.886415521000        -0.164256695262
   17         10.028197701000         0.022939545094
   18          7.592066149300        -0.054457654950
   19          1.914425611800         0.179070505248
   20          0.886415521000         0.261830269733
   21         10.028197701000        -0.011705252131
   22          7.592066149300         0.027787847537
   23          1.914425611800        -0.091373451587
 S 8
    1         48.013786990000         0.053832766048
    2         21.239875095000        -1.608089247348
    3         15.876100879000         3.379543004631
    4          5.518053182000        -3.597033976629
    5          1.509914547900         2.774442421032
    6          0.706834821600        -1.715259400138
    7          0.162662655800         0.483867213859
    8          0.056960589100        -0.180273444449
 S 8
    1         48.013786990000         0.056906344575
    2         21.239875095000        -1.699903005815
    3         15.876100879000         3.572497808394
    4          5.518053182000        -1.540066598945
    5          1.509914547900         0.880724819562
    6          0.706834821600        -0.519385595833
    7          0.162662655800         0.144703379933
    8          0.056960589100        -0.054074149108
 P 9
    1         17.500000000000        -0.086453928943
    2         15.252594855000         0.153267405806
    3          6.440471516900        -0.302738142640
    4          1.818015992000         0.543592362898
    5          0.900679818000         0.497628337658
    6          0.413045401200         0.137811994771
    7          0.118457026500         0.006966113024
    8          0.036087619300         0.000511328347
    9          0.060299307800        -0.001635410630
 D 23
    1         10.028197701000         0.005861924792
    2          7.592066149300        -0.013915998612
    3          1.914425611800         0.045759313447
    4          0.886415521000         0.066907575685
    5         10.028197701000        -0.031857963721
    6          7.592066149300         0.075629659988
    7          1.914425611800        -0.248689397994
    8          0.886415521000        -0.363624439806
    9         10.028197701000        -0.017888140751
   10          7.592066149300         0.042465802732
   11          1.914425611800        -0.139638270466
   12          0.886415521000        -0.204173914462
   13         10.028197701000        -0.013777592241
   14          7.592066149300         0.032707508418
   15          1.914425611800        -0.107550537444
   16          0.886415521000        -0.157256418024
   17         10.028197701000         0.005688155307
   18          7.592066149300        -0.013503476105
   19          1.914425611800         0.044402835394
   20          0.886415521000         0.064924183645
   21          0.381542353200         0.048771691497
   22          0.381542353200        -0.265060851743
   23          0.381542353200        -0.148830787337
 P 9
    1         17.500000000000        -0.010111028946
    2         15.252594855000         0.017925052054
    3          6.440471516900        -0.035406073046
    4          1.818015992000         0.063574648177
    5          0.900679818000         0.091461037886
    6          0.413045401200         0.009744867128
    7          0.118457026500        -0.491433643858
    8          0.036087619300        -1.640362113470
    9          0.060299307800         1.053536812288
 P 9
    1         17.500000000000        -0.015799145921
    2         15.252594855000         0.028009069558
    3          6.440471516900        -0.055324311457
    4          1.818015992000         0.099339557706
    5          0.900679818000         0.205843719826
    6          0.413045401200        -0.199596451319
    7          0.118457026500         0.682211250961
    8          0.036087619300         2.769077463185
    9          0.060299307800        -3.581301533879
 P 9
    1         17.500000000000        -0.023739315675
    2         15.252594855000         0.042085575214
    3          6.440471516900        -0.083128626110
    4          1.818015992000         0.149264595130
    5          0.900679818000         0.164472192116
    6          0.413045401200         0.297670431316
    7          0.118457026500        -3.549475938172
    8          0.036087619300        -2.575849908678
    9          0.060299307800         5.385337400667
 P 9
    1         17.500000000000        -0.058282569564
    2         15.252594855000         0.103324607105
    3          6.440471516900        -0.204089705046
    4          1.818015992000         0.366460611939
    5          0.900679818000         1.410817116591
    6          0.413045401200        -2.903652313238
    7          0.118457026500         3.306600876726
    8          0.036087619300         1.390779718666
    9          0.060299307800        -3.317585231724
 P 9
    1         17.500000000000        -0.583337920524
    2         15.252594855000         1.034154154467
    3          6.440471516900        -2.042690722670
    4          1.818015992000         3.667826812051
    5          0.900679818000        -4.482602688771
    6          0.413045401200         2.606498541727
    7          0.118457026500        -1.623938356302
    8          0.036087619300        -0.665295722993
    9          0.060299307800         1.567665450649
 D 6
    1         10.028197701000        -0.012697286497
    2          7.592066149300         0.030142901441
    3          1.914425611800        -0.099117462836
    4          0.886415521000        -0.144925888234
    5          0.381542353200        -0.477035093730
    6          0.148807400900         1.234824099167
 D 6
    1         10.028197701000        -0.065791588124
    2          7.592066149300         0.156186863775
    3          1.914425611800        -0.513581802866
    4          0.886415521000        -0.750940316991
    5          0.381542353200         1.755356624037
    6          0.148807400900        -0.802108859779
 end
  // -----------------------------------------------
  // The basis set
  // -----------------------------------------------
  BAS[ATNO] = new BFNGauss[NSH];
  // Basis function   1 L = s
  InitBFNGauss(BAS[ATNO][  0]);
  BAS[ATNO][  0].l  = 0;
  BAS[ATNO][  0].ng = 8;
  BAS[ATNO][  0].a[  0] =        48.013786990000;     BAS[ATNO][  0].d[  0] =         0.005998469188;
  BAS[ATNO][  0].a[  1] =        21.239875095000;     BAS[ATNO][  0].d[  1] =        -0.179185921685;
  BAS[ATNO][  0].a[  2] =        15.876100879000;     BAS[ATNO][  0].d[  2] =         0.376575198895;
  BAS[ATNO][  0].a[  3] =         5.518053182000;     BAS[ATNO][  0].d[  3] =        -0.835164045792;
  BAS[ATNO][  0].a[  4] =         1.509914547900;     BAS[ATNO][  0].d[  4] =         0.991522160166;
  BAS[ATNO][  0].a[  5] =         0.706834821600;     BAS[ATNO][  0].d[  5] =         0.507725654690;
  BAS[ATNO][  0].a[  6] =         0.162662655800;     BAS[ATNO][  0].d[  6] =        -0.108923051538;
  BAS[ATNO][  0].a[  7] =         0.056960589100;     BAS[ATNO][  0].d[  7] =        -0.107374769761;

FINAL SINGLE POINT ENERGY      -152.554327920589

DIPOLE MOMENT
-------------
                                X             Y             Z
Electronic contribution:      0.00000       0.00000      -0.00000
Nuclear contribution   :      0.00000       0.00000       0.00000
                        -----------------------------------------
Total Dipole Moment    :      0.00000       0.00000      -0.00000
                        -----------------------------------------
Magnitude (a.u.)       :      0.00000
Magnitude (Debye)      :      0.00000

Rotational constants in cm-1:     0.000000     0.000000     0.000000
Rotational constants in MHz :     0.000000     0.000000     0.000000

                             ****ORCA TERMINATED NORMALLY****
TOTAL RUN TIME: 0 days 0 hours 0 minutes 1 seconds 290 msec
