                         Program Version 4.2.0 -  RELEASE  -
|  1> #
|  2> # 81_Tl CCSD(T)/Def2-TZVPPD
|  3> #
|  4> ! CCSD(T) Def2-TZVPPD tightscf slowconv
|  5>
|  6> *xyz 0 2
|  7>  Tl 0.0 0.0 0.0
|  8> *
|  9>
| 10> %maxcore 5000
| 11>
| 12> %pal
| 13> nprocs 24
| 14> end
| 15>
| 16>
| 17>                          ****END OF INPUT****

CARTESIAN COORDINATES (ANGSTROEM)
---------------------------------
  Tl     0.000000    0.000000    0.000000

 Total Charge           Charge          ....    0
 Multiplicity           Mult            ....    2
 Number of Electrons    NEL             ....   21
 Basis Dimension        Dim             ....   56

ORBITAL ENERGIES
----------------
                 SPIN UP ORBITALS
  NO   OCC          E(Eh)            E(eV)
   0   1.0000      -5.643575      -153.5695
   1   1.0000      -3.469621       -94.4132
   2   1.0000      -3.469621       -94.4132
   3   1.0000      -3.464300       -94.2684
   4   1.0000      -0.847167       -23.0526
   5   1.0000      -0.847167       -23.0526
   6   1.0000      -0.839396       -22.8411
   7   1.0000      -0.839396       -22.8411
   8   1.0000      -0.837025       -22.7766
   9   1.0000      -0.473459       -12.8835
  10   1.0000      -0.192465        -5.2372
  11   0.0000       0.014869         0.4046
  12   0.0000       0.014869         0.4046
  13   0.0000       0.046228         1.2579
  14   0.0000       0.091803         2.4981
  15   0.0000       0.091803         2.4981

                 SPIN DOWN ORBITALS
  NO   OCC          E(Eh)            E(eV)
   0   1.0000      -5.643206      -153.5595
   1   1.0000      -3.471945       -94.4764
   2   1.0000      -3.471945       -94.4764
   3   1.0000      -3.460785       -94.1727
   4   1.0000      -0.847734       -23.0680
   5   1.0000      -0.847734       -23.0680
   6   1.0000      -0.835942       -22.7472
   7   1.0000      -0.835942       -22.7472
   8   1.0000      -0.832420       -22.6513
   9   1.0000      -0.422946       -11.5089
  10   0.0000       0.025044         0.6815
  11   0.0000       0.025044         0.6815
  12   0.0000       0.050933         1.3860
  13   0.0000       0.052348         1.4245
  14   0.0000       0.092906         2.5281

E(0)                                       ...   -171.515042212
E(0)                                       ...   -171.515042212
E(CORR)                                    ...     -0.321946742
E(TOT)                                     ...   -171.836988954
E(CCSD(T))                                 ...   -171.843268847

MULLIKEN ATOMIC CHARGES AND SPIN DENSITIES
------------------------------------------
   0 Tl:   -0.000000    1.000000
Sum of atomic charges       :   -0.0000000

LOEWDIN ATOMIC CHARGES AND SPIN DENSITIES
-----------------------------------------
   0 Tl:   -0.000000    1.000000

FINAL SINGLE POINT ENERGY      -171.843268846859

DIPOLE MOMENT
-------------
                                X             Y             Z
Electronic contribution:      0.00000      -0.00000       0.00000
Nuclear contribution   :      0.00000       0.00000       0.00000
                        -----------------------------------------
Total Dipole Moment    :      0.00000      -0.00000       0.00000
                        -----------------------------------------
Magnitude (a.u.)       :      0.00000
Magnitude (Debye)      :      0.00000

Rotational constants in cm-1:     0.000000     0.000000     0.000000
Rotational constants in MHz :     0.000000     0.000000     0.000000

                             ****ORCA TERMINATED NORMALLY****
TOTAL RUN TIME: 0 days 0 hours 0 minutes 21 seconds 952 msec
