                         Program Version 4.2.0 -  RELEASE  -
|  1> # input to generate an atomic fitting density for Tl
|  2> # this file is use internally by ORCA
|  3> #
|  4> # atomic ground state (S=2): 1s2 2s2 2p6 3s2 3p6 4s2 3d10 4p6 5s2 4d10 5p6 6s2 4f14 5d10 6p1
|  5> #
|  6> ! RHF AllowRHF def2-SVP def2/J  NoMulliken NoLoewdin NoMayer NoPrintMOs
|  7>
|  8> %output print[p_atomdensfit] 2 end
|  9>
| 10> %scf
| 11>   guess hcore
| 12>   maxiter 1000
| 13>   maxdisk 500000
| 14>   SCFMode Conventional
| 15>   lshift 1.000000
| 16>   hftyp rohf
| 17>   rohf_case sahf
| 18>   rohf_numop   2
| 19>   rohf_norb[1] 3
| 20>   rohf_nel[1]  1
| 21> end
| 22>
| 23> %basis
| 24>   NewECP 81
| 25>     N_core 60
| 26>     lmax f
| 27>     s 6
| 28>       1      12.1678050000    281.2846630000  2
| 29>       2       8.2949090000     62.4342510000  2
| 30>       3       5.6263990000    -15.8254880000  2
| 31>       4       5.5489520000    -21.1040210000  2
| 32>       5       2.8749460000     -2.9151270000  2
| 33>       6       2.8214510000     -3.8969030000  2
| 34>     p 8
| 35>       1       7.1514920000      4.6334080000  2
| 36>       2       5.1728650000      9.3417560000  2
| 37>       3       9.8910720000     72.2992530000  2
| 38>       4       9.0033910000    144.5580370000  2
| 39>       5       5.6263990000    -15.8254880000  2
| 40>       6       5.5489520000    -21.1040210000  2
| 41>       7       2.8749460000     -2.9151270000  2
| 42>       8       2.8214510000     -3.8969030000  2
| 43>     d 8
| 44>       1       7.1302180000     35.9430390000  2
| 45>       2       6.9269060000     53.9095930000  2
| 46>       3       5.4175700000     10.3819390000  2
| 47>       4       5.1386810000     15.5838220000  2
| 48>       5       5.6263990000    -15.8254880000  2
| 49>       6       5.5489520000    -21.1040210000  2
| 50>       7       2.8749460000     -2.9151270000  2
| 51>       8       2.8214510000     -3.8969030000  2
| 52>     f 4
| 53>       1       5.6263990000     15.8254880000  2
| 54>       2       5.5489520000     21.1040210000  2
| 55>       3       2.8749460000      2.9151270000  2
| 56>       4       2.8214510000      3.8969030000  2
| 57>   end
| 58>   NewGTO 81
| 59>     s 4
| 60>      1     729.6503814500      0.0006142718
| 61>      2      46.6655487070      0.0271550952
| 62>      3      20.9704487260     -0.8995204906
| 63>      4      14.1495886770      1.8330747970
| 64>     s 2
| 65>      1      20.7301342850     -0.0775732709
| 66>      2       6.1527631309      1.0585195425
| 67>     s 1
| 68>      1       1.5757324480      1.0000000000
| 69>     s 1
| 70>      1       0.7498016946      1.0000000000
| 71>     s 1
| 72>      1       0.1953681619      1.0000000000
| 73>     s 1
| 74>      1       0.0708787673      1.0000000000
| 75>     p 3
| 76>      1      15.3838526160      2.0084242419
| 77>      2      14.8149295440     -2.3709837424
| 78>      3       6.7261253658      1.3159389276
| 79>     p 3
| 80>      1       1.9626182149      0.4740914507
| 81>      2       1.0331857851      0.4309501157
| 82>      3       0.5383744600      0.1538728384
| 83>     p 1
| 84>      1       0.2444661168      1.0000000000
| 85>     p 1
| 86>      1       0.0907853773      1.0000000000
| 87>     p 1
| 88>      1       0.0334013215      1.0000000000
| 89>     s 1
| 90>      1       0.0212504031      1.0000000000
| 91>   end
| 92>   NewAuxGTO 81
| 93>     S 1
| 94>      1 1310.72 1.0
| 95>     S 1
| 96>      1  655.36 1.0
| 97>     S 1
| 98>      1  327.68 1.0
| 99>     S 1
|100>      1  163.84 1.0
|101>     S 1
|102>      1   81.82 1.0
|103>     S 1
|104>      1   40.96 1.0
|105>     S 1
|106>      1   20.48 1.0
|107>     S 1
|108>      1   10.24 1.0
|109>     S 1
|110>      1    5.12 1.0
|111>     S 1
|112>      1    2.56 1.0
|113>     S 1
|114>      1    1.28 1.0
|115>     S 1
|116>      1    0.64 1.0
|117>     S 1
|118>      1    0.32 1.0
|119>     S 1
|120>      1    0.16 1.0
|121>     S 1
|122>      1    0.08 1.0
|123>     S 1
|124>      1    0.04 1.0
|125>     S 1
|126>      1    0.02 1.0
|127>     S 1
|128>      1    0.01 1.0
|129>   end
|130> end
|131>
|132> * xyz 0 2
|133> 81  0.0 0.0 0.0
|134> *
|135>
|136>
|137>                          ****END OF INPUT****

CARTESIAN COORDINATES (ANGSTROEM)
---------------------------------
  Tl     0.000000    0.000000    0.000000

 Total Charge           Charge          ....    0
 Multiplicity           Mult            ....    2
 Number of Electrons    NEL             ....   21
 Basis Dimension        Dim             ....   22

ORBITAL ENERGIES
----------------

  NO   OCC          E(Eh)            E(eV)
   0   2.0000      -8.817419      -239.9342
   1   2.0000      -6.318687      -171.9402
   2   2.0000      -6.318687      -171.9402
   3   2.0000      -6.312011      -171.7585
   4   2.0000      -2.159262       -58.7565
   5   2.0000      -1.267307       -34.4852
   6   2.0000      -1.267307       -34.4852
   7   2.0000      -1.247684       -33.9512
   8   2.0000      -0.372979       -10.1493
   9   2.0000      -0.162637        -4.4256
  10   0.3333      -0.184480        -5.0200
  11   0.3333      -0.184480        -5.0200
  12   0.3333      -0.072777        -1.9804
  13   0.0000       0.035037         0.9534
  14   0.0000       0.035037         0.9534
  15   0.0000       0.054968         1.4958
  16   0.0000       0.863894        23.5078
  17   0.0000      31.616140       860.3189

CleanUpVectors: The p-vectors have cracked symmetry
CleanUpVectors: The p-vectors have cracked symmetry
CleanUpVectors: The p-vectors have cracked symmetry
CleanUpVectors: The p-vectors have cracked symmetry
CleanUpVectors: The p-vectors have cracked symmetry
CleanUpVectors: The p-vectors have cracked symmetry
CleanUpVectors: The p-vectors have cracked symmetry
CleanUpVectors: The p-vectors have cracked symmetry
CleanUpVectors: The p-vectors have cracked symmetry
CleanUpVectors: The p-vectors have cracked symmetry
CleanUpVectors: The p-vectors have cracked symmetry
CleanUpVectors: The p-vectors have cracked symmetry
CleanUpVectors: The p-vectors have cracked symmetry
CleanUpVectors: The p-vectors have cracked symmetry
--------------------------
ATOM BASIS FOR ELEMENT Tl
--------------------------
 NewGTO Tl
 S 11
    1        729.650381450000        -0.000181164470
    2         46.665548707000        -0.008008732332
    3         20.970448726000         0.265291606710
    4         14.149588677000        -0.540620656446
    5         20.730134285000        -0.077396495627
    6          6.152763130900         1.056107370380
    7          1.575732448000        -1.227880838102
    8          0.749801694600        -0.230792693967
    9          0.195368161900         0.004638055197
   10          0.070878767300        -0.001873736085
   11          0.021250403100         0.000448238731
 P 20
    1         15.383852616000        -0.346265808064
    2         14.814929544000         0.408773497322
    3          6.726125365800        -0.226876695980
    4         15.383852616000        -0.401751602810
    5         14.814929544000         0.474275553378
    6          6.726125365800        -0.263231523666
    7         15.383852616000        -0.130863728225
    8         14.814929544000         0.154487167411
    9          6.726125365800        -0.085743176461
   10          1.962618214900         0.356879164979
   11          1.033185785100         0.324403903955
   12          0.538374460000         0.115829994403
   13          1.962618214900         0.414065648993
   14          1.033185785100         0.376386536980
   15          0.538374460000         0.134390646784
   16          1.962618214900         0.134874818614
   17          1.033185785100         0.122601490917
   18          0.538374460000         0.043775459646
   19          0.244466116800        -0.095432067711
   20          0.244466116800        -0.110724146796
 S 11
    1        729.650381450000        -0.000121135381
    2         46.665548707000        -0.005355028195
    3         20.970448726000         0.177386879107
    4         14.149588677000        -0.361485281111
    5         20.730134285000        -0.059367903352
    6          6.152763130900         0.810099731087
    7          1.575732448000        -1.836334967535
    8          0.749801694600         0.820241051796
    9          0.195368161900         1.129990644849
   10          0.070878767300        -0.286705818434
   11          0.021250403100         0.070970995093
 P 20
    1         15.383852616000         0.028072826272
    2         14.814929544000        -0.033140515487
    3          6.726125365800         0.018393586438
    4         15.383852616000         0.033384500043
    5         14.814929544000        -0.039411049319
    6          6.726125365800         0.021873846306
    7         15.383852616000        -0.232125239541
    8         14.814929544000         0.274028344048
    9          6.726125365800        -0.152090694993
   10          1.962618214900        -0.038176289261
   11          1.033185785100        -0.034702326418
   12          0.538374460000        -0.012390634717
   13          1.962618214900        -0.045399644416
   14          1.033185785100        -0.041268371292
   15          0.538374460000        -0.014735073029
   16          1.962618214900         0.315667549961
   17          1.033185785100         0.286942460104
   18          0.538374460000         0.102454203364
   19          0.244466116800         0.164059398719
   20          0.244466116800         0.195101161195
 S 11
    1        729.650381450000         0.000177284176
    2         46.665548707000         0.007837196312
    3         20.970448726000        -0.259609425763
    4         14.149588677000         0.529041306344
    5         20.730134285000         0.090841665214
    6          6.152763130900        -1.239572300959
    7          1.575732448000         4.240126736740
    8          0.749801694600        -5.203600175921
    9          0.195368161900         3.754021217451
   10          0.070878767300        -2.479803725439
   11          0.021250403100         0.733772849281
 S 11
    1        729.650381450000         0.001626514161
    2         46.665548707000         0.071903263165
    3         20.970448726000        -2.381816674965
    4         14.149588677000         4.853750596654
    5         20.730134285000         0.349645321668
    6          6.152763130900        -4.771055824199
    7          1.575732448000         3.191517653776
    8          0.749801694600        -2.162277068773
    9          0.195368161900         0.773153646184
   10          0.070878767300        -0.395568398052
   11          0.021250403100         0.106926880868
 S 11
    1        729.650381450000         0.001529288660
    2         46.665548707000         0.067605218305
    3         20.970448726000        -2.239442678776
    4         14.149588677000         4.563615811634
    5         20.730134285000         0.165595496249
    6          6.152763130900        -2.259619413955
    7          1.575732448000         1.046553218208
    8          0.749801694600        -0.667998420116
    9          0.195368161900         0.231980717555
   10          0.070878767300        -0.118444601842
   11          0.021250403100         0.032042244417
 P 20
    1         15.383852616000        -0.151523501742
    2         14.814929544000         0.178876430450
    3          6.726125365800        -0.099279659261
    4         15.383852616000        -0.175849429418
    5         14.814929544000         0.207593659528
    6          6.726125365800        -0.115218241614
    7         15.383852616000        -0.043615843949
    8         14.814929544000         0.051489349091
    9          6.726125365800        -0.028577521479
   10          1.962618214900         0.206057095087
   11          1.033185785100         0.187306328426
   12          0.538374460000         0.066878637121
   13          1.962618214900         0.239137969900
   14          1.033185785100         0.217376912502
   15          0.538374460000         0.077615485669
   16          1.962618214900         0.059313268243
   17          1.033185785100         0.053915884317
   18          0.538374460000         0.019250929174
   19          0.244466116800        -0.885513070438
   20          0.244466116800        -1.027675353254
 P 20
    1         15.383852616000         0.024319558137
    2         14.814929544000        -0.028709709712
    3          6.726125365800         0.015934408969
    4         15.383852616000         0.028499196337
    5         14.814929544000        -0.033643853613
    6          6.726125365800         0.018672948216
    7         15.383852616000        -0.075173954576
    8         14.814929544000         0.088744310307
    9          6.726125365800        -0.049254699831
   10          1.962618214900        -0.035157485603
   11          1.033185785100        -0.031958227608
   12          0.538374460000        -0.011410840868
   13          1.962618214900        -0.041199765198
   14          1.033185785100        -0.037450672339
   15          0.538374460000        -0.013371945018
   16          1.962618214900         0.108674968965
   17          1.033185785100         0.098785773040
   18          0.538374460000         0.035271941548
   19          0.244466116800         0.252942457556
   20          0.244466116800         0.296413969343
 P 20
    1         15.383852616000         0.019056157100
    2         14.814929544000        -0.022496162779
    3          6.726125365800         0.012485777862
    4         15.383852616000         0.022442220206
    5         14.814929544000        -0.026493475901
    6          6.726125365800         0.014704359057
    7         15.383852616000        -0.092037183824
    8         14.814929544000         0.108651679257
    9          6.726125365800        -0.060303650222
   10          1.962618214900        -0.027984769594
   11          1.033185785100        -0.025438213823
   12          0.538374460000        -0.009082838180
   13          1.962618214900        -0.032957345931
   14          1.033185785100        -0.029958296066
   15          0.538374460000        -0.010696755567
   16          1.962618214900         0.135160482251
   17          1.033185785100         0.122861159757
   18          0.538374460000         0.043868175671
   19          0.244466116800         0.255350689979
   20          0.244466116800         0.300723613074
 P 20
    1         15.383852616000         0.594567372016
    2         14.814929544000        -0.701898305847
    3          6.726125365800         0.389566274691
    4         15.383852616000         0.698203619148
    5         14.814929544000        -0.824242904138
    6          6.726125365800         0.457469743025
    7         15.383852616000        -2.271226570051
    8         14.814929544000         2.681226984098
    9          6.726125365800        -1.488129546824
   10          1.962618214900        -0.069225460724
   11          1.033185785100        -0.062926087919
   12          0.538374460000        -0.022468066268
   13          1.962618214900        -0.081291825771
   14          1.033185785100        -0.073894438867
   15          0.538374460000        -0.026384369411
   16          1.962618214900         0.264438839266
   17          1.033185785100         0.240375455429
   18          0.538374460000         0.085827227470
   19          0.244466116800         0.090278535891
   20          0.244466116800         0.106014563625
 end
  // -----------------------------------------------
  // The basis set
  // -----------------------------------------------
  BAS[ATNO] = new BFNGauss[NSH];
  // Basis function   1 L = s
  InitBFNGauss(BAS[ATNO][  0]);
  BAS[ATNO][  0].l  = 0;
  BAS[ATNO][  0].ng = 11;
  BAS[ATNO][  0].a[  0] =       729.650381450000;     BAS[ATNO][  0].d[  0] =         0.000181164470;
  BAS[ATNO][  0].a[  1] =        46.665548707000;     BAS[ATNO][  0].d[  1] =         0.008008732332;
  BAS[ATNO][  0].a[  2] =        20.970448726000;     BAS[ATNO][  0].d[  2] =        -0.265291606710;
  BAS[ATNO][  0].a[  3] =        14.149588677000;     BAS[ATNO][  0].d[  3] =         0.540620656446;
  BAS[ATNO][  0].a[  4] =        20.730134285000;     BAS[ATNO][  0].d[  4] =         0.077396495627;
  BAS[ATNO][  0].a[  5] =         6.152763130900;     BAS[ATNO][  0].d[  5] =        -1.056107370380;
  BAS[ATNO][  0].a[  6] =         1.575732448000;     BAS[ATNO][  0].d[  6] =         1.227880838102;
  BAS[ATNO][  0].a[  7] =         0.749801694600;     BAS[ATNO][  0].d[  7] =         0.230792693967;
  BAS[ATNO][  0].a[  8] =         0.195368161900;     BAS[ATNO][  0].d[  8] =        -0.004638055197;
  BAS[ATNO][  0].a[  9] =         0.070878767300;     BAS[ATNO][  0].d[  9] =         0.001873736085;
  BAS[ATNO][  0].a[ 10] =         0.021250403100;     BAS[ATNO][  0].d[ 10] =        -0.000448238731;

FINAL SINGLE POINT ENERGY      -156.739973930167

DIPOLE MOMENT
-------------
                                X             Y             Z
Electronic contribution:      0.00000      -0.00000       0.00000
Nuclear contribution   :      0.00000       0.00000       0.00000
                        -----------------------------------------
Total Dipole Moment    :      0.00000      -0.00000       0.00000
                        -----------------------------------------
Magnitude (a.u.)       :      0.00000
Magnitude (Debye)      :      0.00000

Rotational constants in cm-1:     0.000000     0.000000     0.000000
Rotational constants in MHz :     0.000000     0.000000     0.000000

                             ****ORCA TERMINATED NORMALLY****
TOTAL RUN TIME: 0 days 0 hours 0 minutes 1 seconds 334 msec
