                         Program Version 4.2.0 -  RELEASE  -
|  1> # input to generate an atomic fitting density for Pb
|  2> # this file is use internally by ORCA
|  3> #
|  4> # atomic ground state (S=3): 1s2 2s2 2p6 3s2 3p6 4s2 3d10 4p6 5s2 4d10 5p6 6s2 4f14 5d10 6p2
|  5> #
|  6> ! RHF AllowRHF def2-SVP def2/J  NoMulliken NoLoewdin NoMayer NoPrintMOs
|  7>
|  8> %output print[p_atomdensfit] 2 end
|  9>
| 10> %scf
| 11>   guess hcore
| 12>   maxiter 1000
| 13>   maxdisk 500000
| 14>   SCFMode Conventional
| 15>   lshift 1.000000
| 16>   hftyp rohf
| 17>   rohf_case sahf
| 18>   rohf_numop   2
| 19>   rohf_norb[1] 3
| 20>   rohf_nel[1]  2
| 21> end
| 22>
| 23> %basis
| 24>   NewECP 82
| 25>     N_core 60
| 26>     lmax f
| 27>     s 4
| 28>       1      12.2963030000    281.2854990000  2
| 29>       2       8.6326340000     62.5202170000  2
| 30>       3       3.8875120000    -12.2098920000  2
| 31>       4       3.8119630000    -16.1902910000  2
| 32>     p 6
| 33>       1      10.2417900000     72.2768970000  2
| 34>       2       8.9241760000    144.5910830000  2
| 35>       3       6.5813420000      4.7586930000  2
| 36>       4       6.2554030000      9.9406210000  2
| 37>       5       3.8875120000    -12.2098920000  2
| 38>       6       3.8119630000    -16.1902910000  2
| 39>     d 6
| 40>       1       7.7543360000     35.8485070000  2
| 41>       2       7.7202810000     53.7243420000  2
| 42>       3       4.9702640000     10.1152560000  2
| 43>       4       4.5637890000     14.8337310000  2
| 44>       5       3.8875120000    -12.2098920000  2
| 45>       6       3.8119630000    -16.1902910000  2
| 46>     f 2
| 47>       1       3.8875120000     12.2098920000  2
| 48>       2       3.8119630000     16.1902910000  2
| 49>   end
| 50>   NewGTO 82
| 51>     s 4
| 52>      1     591.6112437000      0.0010793043
| 53>      2      46.7572325590      0.0277853403
| 54>      3      20.7464626960     -1.0426004422
| 55>      4      14.6107964190      1.9756678237
| 56>     s 2
| 57>      1      20.2226376120     -0.0913815030
| 58>      2       6.4767324865      1.0709890840
| 59>     s 1
| 60>      1       1.6600600927      1.0000000000
| 61>     s 1
| 62>      1       0.8043165500      1.0000000000
| 63>     s 1
| 64>      1       0.2262703902      1.0000000000
| 65>     s 1
| 66>      1       0.0840145307      1.0000000000
| 67>     p 3
| 68>      1      15.1891021180      2.1791721897
| 69>      2      14.6931444150     -2.5501345314
| 70>      3       6.8705890048      1.3253942268
| 71>     p 3
| 72>      1       2.2021426123      0.4021965022
| 73>      2       1.2209125119      0.4608490466
| 74>      3       0.6336755981      0.1937891349
| 75>     p 1
| 76>      1       0.2820283706      1.0000000000
| 77>     p 1
| 78>      1       0.1133337567      1.0000000000
| 79>     p 1
| 80>      1       0.0439487074      1.0000000000
| 81>     s 1
| 82>      1       0.0285333217      1.0000000000
| 83>   end
| 84>   NewAuxGTO 82
| 85>     S 1
| 86>      1 1310.72 1.0
| 87>     S 1
| 88>      1  655.36 1.0
| 89>     S 1
| 90>      1  327.68 1.0
| 91>     S 1
| 92>      1  163.84 1.0
| 93>     S 1
| 94>      1   81.82 1.0
| 95>     S 1
| 96>      1   40.96 1.0
| 97>     S 1
| 98>      1   20.48 1.0
| 99>     S 1
|100>      1   10.24 1.0
|101>     S 1
|102>      1    5.12 1.0
|103>     S 1
|104>      1    2.56 1.0
|105>     S 1
|106>      1    1.28 1.0
|107>     S 1
|108>      1    0.64 1.0
|109>     S 1
|110>      1    0.32 1.0
|111>     S 1
|112>      1    0.16 1.0
|113>     S 1
|114>      1    0.08 1.0
|115>     S 1
|116>      1    0.04 1.0
|117>     S 1
|118>      1    0.02 1.0
|119>     S 1
|120>      1    0.01 1.0
|121>   end
|122> end
|123>
|124> * xyz 0 3
|125> 82  0.0 0.0 0.0
|126> *
|127>
|128>
|129>                          ****END OF INPUT****

CARTESIAN COORDINATES (ANGSTROEM)
---------------------------------
  Pb     0.000000    0.000000    0.000000

 Total Charge           Charge          ....    0
 Multiplicity           Mult            ....    3
 Number of Electrons    NEL             ....   22
 Basis Dimension        Dim             ....   22

ORBITAL ENERGIES
----------------

  NO   OCC          E(Eh)            E(eV)
   0   2.0000      -9.587698      -260.8945
   1   2.0000      -6.923772      -188.4054
   2   2.0000      -6.923772      -188.4054
   3   2.0000      -6.917164      -188.2256
   4   2.0000      -2.439450       -66.3808
   5   2.0000      -1.471216       -40.0338
   6   2.0000      -1.471216       -40.0338
   7   2.0000      -1.453397       -39.5489
   8   2.0000      -0.449724       -12.2376
   9   2.0000      -0.201726        -5.4893
  10   0.6667      -0.237322        -6.4579
  11   0.6667      -0.237322        -6.4579
  12   0.6667      -0.071382        -1.9424
  13   0.0000       0.128317         3.4917
  14   0.0000       0.128317         3.4917
  15   0.0000       0.150292         4.0897
  16   0.0000       1.055996        28.7351
  17   0.0000      31.947380       869.3324

CleanUpVectors: The p-vectors have cracked symmetry
CleanUpVectors: The p-vectors have cracked symmetry
CleanUpVectors: The p-vectors have cracked symmetry
CleanUpVectors: The p-vectors have cracked symmetry
CleanUpVectors: The p-vectors have cracked symmetry
CleanUpVectors: The p-vectors have cracked symmetry
CleanUpVectors: The p-vectors have cracked symmetry
CleanUpVectors: The p-vectors have cracked symmetry
CleanUpVectors: The p-vectors have cracked symmetry
CleanUpVectors: The p-vectors have cracked symmetry
CleanUpVectors: The p-vectors have cracked symmetry
CleanUpVectors: The p-vectors have cracked symmetry
CleanUpVectors: The p-vectors have cracked symmetry
CleanUpVectors: The p-vectors have cracked symmetry
--------------------------
ATOM BASIS FOR ELEMENT Pb
--------------------------
 NewGTO Pb
 S 11
    1        591.611243700000         0.000330316055
    2         46.757232559000         0.008503574011
    3         20.746462696000        -0.319083010257
    4         14.610796419000         0.604643937350
    5         20.222637612000         0.093325496210
    6          6.476732486500        -1.093772639082
    7          1.660060092700         1.253658883445
    8          0.804316550000         0.212315495616
    9          0.226270390200        -0.000811034559
   10          0.084014530700        -0.000035090560
   11          0.028533321700         0.000077302268
 P 20
    1         15.189102118000         0.069285998335
    2         14.693144415000        -0.081080612965
    3          6.870589004800         0.042140434164
    4         15.189102118000        -0.134922373804
    5         14.693144415000         0.157890324649
    6          6.870589004800        -0.082061131356
    7         15.189102118000        -0.617412420162
    8         14.693144415000         0.722515063386
    9          6.870589004800        -0.375516382370
   10          2.202142612300        -0.052971955462
   11          1.220912511900        -0.060696885820
   12          0.633675598100        -0.025523318494
   13          2.202142612300         0.103153626241
   14          1.220912511900         0.118196578156
   15          0.633675598100         0.049702202485
   16          2.202142612300         0.472036832959
   17          1.220912511900         0.540874232469
   18          0.633675598100         0.227440092093
   19          0.282028370600         0.017741213651
   20          0.282028370600        -0.034547913251
 S 11
    1        591.611243700000        -0.000221405113
    2         46.757232559000        -0.005699797929
    3         20.746462696000         0.213875798425
    4         14.610796419000        -0.405282326876
    5         20.222637612000        -0.072558874372
    6          6.476732486500         0.850388315458
    7          1.660060092700        -1.914649502870
    8          0.804316550000         0.844391705668
    9          0.226270390200         1.145384091836
   10          0.084014530700        -0.283882421231
   11          0.028533321700         0.075031427041
 P 20
    1         15.189102118000         0.025551126161
    2         14.693144415000        -0.029900716174
    3          6.870589004800         0.015540449379
    4         15.189102118000        -0.276956755043
    5         14.693144415000         0.324103339827
    6          6.870589004800        -0.168447856458
    7         15.189102118000         0.106864211216
    8         14.693144415000        -0.125055797096
    9          6.870589004800         0.064995877456
   10          2.202142612300        -0.025865748070
   11          1.220912511900        -0.029637764805
   12          0.633675598100        -0.012462815849
   13          2.202142612300         0.280367041637
   14          1.220912511900         0.321253126593
   15          0.633675598100         0.135088411153
   16          2.202142612300        -0.108180075806
   17          1.220912511900        -0.123956037717
   18          0.633675598100        -0.052124081610
   19          0.282028370600         0.123775041430
   20          0.282028370600        -1.341636905314
 S 11
    1        591.611243700000         0.000321471469
    2         46.757232559000         0.008275881192
    3         20.746462696000        -0.310539201510
    4         14.610796419000         0.588453911574
    5         20.222637612000         0.110706868976
    6          6.476732486500        -1.297481922537
    7          1.660060092700         4.547717795098
    8          0.804316550000        -5.775529462101
    9          0.226270390200         4.302930278968
   10          0.084014530700        -2.916210531859
   11          0.028533321700         0.921244288868
 S 11
    1        591.611243700000         0.003012952282
    2         46.757232559000         0.077564690954
    3         20.746462696000        -2.910490935659
    4         14.610796419000         5.515212789109
    5         20.222637612000         0.432355201021
    6          6.476732486500        -5.067192872770
    7          1.660060092700         3.472428081115
    8          0.804316550000        -2.467460933871
    9          0.226270390200         0.940792274162
   10          0.084014530700        -0.492848834024
   11          0.028533321700         0.142212897287
 S 11
    1        591.611243700000         0.002806239125
    2         46.757232559000         0.072243119054
    3         20.746462696000        -2.710807463870
    4         14.610796419000         5.136824104269
    5         20.222637612000         0.208328476322
    6          6.476732486500        -2.441604883950
    7          1.660060092700         1.140341101869
    8          0.804316550000        -0.760760426233
    9          0.226270390200         0.280889002171
   10          0.084014530700        -0.146706975952
   11          0.028533321700         0.042360578216
 P 20
    1         15.189102118000         0.036459490721
    2         14.693144415000        -0.042666020944
    3          6.870589004800         0.022175025334
    4         15.189102118000        -0.103519543645
    5         14.693144415000         0.121141763910
    6          6.870589004800        -0.062961617332
    7         15.189102118000        -0.277005908729
    8         14.693144415000         0.324160860987
    9          6.870589004800        -0.168477752219
   10          2.202142612300        -0.036908431974
   11          1.220912511900        -0.042290809576
   12          0.633675598100        -0.017783479129
   13          2.202142612300         0.104794223917
   14          1.220912511900         0.120076425123
   15          0.633675598100         0.050492686745
   16          2.202142612300         0.280416800574
   17          1.220912511900         0.321310141904
   18          0.633675598100         0.135112386352
   19          0.282028370600         0.176617458899
   20          0.282028370600        -0.501470491858
 P 20
    1         15.189102118000         0.014022647912
    2         14.693144415000        -0.016409735234
    3          6.870589004800         0.008528714103
    4         15.189102118000        -0.112356895710
    5         14.693144415000         0.131483505959
    6          6.870589004800        -0.068336582863
    7         15.189102118000         0.000279488124
    8         14.693144415000        -0.000327065626
    9          6.870589004800         0.000169987460
   10          2.202142612300        -0.015167764925
   11          1.220912511900        -0.017379688701
   12          0.633675598100        -0.007308238702
   13          2.202142612300         0.121532180830
   14          1.220912511900         0.139255287802
   15          0.633675598100         0.058557486345
   16          2.202142612300        -0.000302311674
   17          1.220912511900        -0.000346397957
   18          0.633675598100        -0.000145661928
   19          0.282028370600         0.122239024326
   20          0.282028370600        -0.979443924828
 P 20
    1         15.189102118000         0.018286411291
    2         14.693144415000        -0.021399322692
    3          6.870589004800         0.011121977450
    4         15.189102118000        -0.130110261425
    5         14.693144415000         0.152259042271
    6          6.870589004800        -0.079134356686
    7         15.189102118000        -0.023799468102
    8         14.693144415000         0.027850871869
    9          6.870589004800        -0.014475073504
   10          2.202142612300        -0.020168681444
   11          1.220912511900        -0.023109891716
   12          0.633675598100        -0.009717815316
   13          2.202142612300         0.143502865237
   14          1.220912511900         0.164429969597
   15          0.633675598100         0.069143555346
   16          2.202142612300         0.026249212217
   17          1.220912511900         0.030077149746
   18          0.633675598100         0.012647579229
   19          0.282028370600         0.213730247283
   20          0.282028370600        -1.520719287409
 P 20
    1         15.189102118000         0.243675814572
    2         14.693144415000        -0.285156956456
    3          6.870589004800         0.148206057039
    4         15.189102118000        -2.563358086095
    5         14.693144415000         2.999720720827
    6          6.870589004800        -1.559059914856
    7         15.189102118000         0.904402969541
    8         14.693144415000        -1.058360258923
    9          6.870589004800         0.550066892463
   10          2.202142612300        -0.024106064070
   11          1.220912511900        -0.027621465087
   12          0.633675598100        -0.011614952582
   13          2.202142612300         0.253584765337
   14          1.220912511900         0.290565175726
   15          0.633675598100         0.122183987254
   16          2.202142612300        -0.089469674973
   17          1.220912511900        -0.102517088501
   18          0.633675598100        -0.043108905269
   19          0.282028370600         0.041016197451
   20          0.282028370600        -0.431471632014
 end
  // -----------------------------------------------
  // The basis set
  // -----------------------------------------------
  BAS[ATNO] = new BFNGauss[NSH];
  // Basis function   1 L = s
  InitBFNGauss(BAS[ATNO][  0]);
  BAS[ATNO][  0].l  = 0;
  BAS[ATNO][  0].ng = 11;
  BAS[ATNO][  0].a[  0] =       591.611243700000;     BAS[ATNO][  0].d[  0] =         0.000330316055;
  BAS[ATNO][  0].a[  1] =        46.757232559000;     BAS[ATNO][  0].d[  1] =         0.008503574011;
  BAS[ATNO][  0].a[  2] =        20.746462696000;     BAS[ATNO][  0].d[  2] =        -0.319083010257;
  BAS[ATNO][  0].a[  3] =        14.610796419000;     BAS[ATNO][  0].d[  3] =         0.604643937350;
  BAS[ATNO][  0].a[  4] =        20.222637612000;     BAS[ATNO][  0].d[  4] =         0.093325496210;
  BAS[ATNO][  0].a[  5] =         6.476732486500;     BAS[ATNO][  0].d[  5] =        -1.093772639082;
  BAS[ATNO][  0].a[  6] =         1.660060092700;     BAS[ATNO][  0].d[  6] =         1.253658883445;
  BAS[ATNO][  0].a[  7] =         0.804316550000;     BAS[ATNO][  0].d[  7] =         0.212315495616;
  BAS[ATNO][  0].a[  8] =         0.226270390200;     BAS[ATNO][  0].d[  8] =        -0.000811034559;
  BAS[ATNO][  0].a[  9] =         0.084014530700;     BAS[ATNO][  0].d[  9] =        -0.000035090560;
  BAS[ATNO][  0].a[ 10] =         0.028533321700;     BAS[ATNO][  0].d[ 10] =         0.000077302268;

FINAL SINGLE POINT ENERGY      -173.712213995979

DIPOLE MOMENT
-------------
                                X             Y             Z
Electronic contribution:      0.00000      -0.00000      -0.00000
Nuclear contribution   :      0.00000       0.00000       0.00000
                        -----------------------------------------
Total Dipole Moment    :      0.00000      -0.00000      -0.00000
                        -----------------------------------------
Magnitude (a.u.)       :      0.00000
Magnitude (Debye)      :      0.00000

Rotational constants in cm-1:     0.000000     0.000000     0.000000
Rotational constants in MHz :     0.000000     0.000000     0.000000

                             ****ORCA TERMINATED NORMALLY****
TOTAL RUN TIME: 0 days 0 hours 0 minutes 1 seconds 33 msec
