                         Program Version 4.2.0 -  RELEASE  -
|  1> #
|  2> # 82_Pb CCSD(T)/Def2-TZVPPD
|  3> #
|  4> ! CCSD(T) Def2-TZVPPD tightscf slowconv
|  5>
|  6> *xyz 0 3
|  7>  Pb 0.0 0.0 0.0
|  8> *
|  9>
| 10> %maxcore 5000
| 11>
| 12> %pal
| 13> nprocs 24
| 14> end
| 15>
| 16>
| 17>                          ****END OF INPUT****

CARTESIAN COORDINATES (ANGSTROEM)
---------------------------------
  Pb     0.000000    0.000000    0.000000

 Total Charge           Charge          ....    0
 Multiplicity           Mult            ....    3
 Number of Electrons    NEL             ....   22
 Basis Dimension        Dim             ....   56

ORBITAL ENERGIES
----------------
                 SPIN UP ORBITALS
  NO   OCC          E(Eh)            E(eV)
   0   1.0000      -6.173992      -168.0029
   1   1.0000      -3.859548      -105.0236
   2   1.0000      -3.853453      -104.8578
   3   1.0000      -3.853453      -104.8578
   4   1.0000      -1.082096       -29.4453
   5   1.0000      -1.078844       -29.3568
   6   1.0000      -1.078844       -29.3568
   7   1.0000      -1.069775       -29.1100
   8   1.0000      -1.069775       -29.1100
   9   1.0000      -0.623243       -16.9593
  10   1.0000      -0.254872        -6.9354
  11   1.0000      -0.254872        -6.9354
  12   0.0000      -0.014260        -0.3880
  13   0.0000       0.055977         1.5232
  14   0.0000       0.111170         3.0251
  15   0.0000       0.111170         3.0251
  16   0.0000       0.111266         3.0277

                 SPIN DOWN ORBITALS
  NO   OCC          E(Eh)            E(eV)
   0   1.0000      -6.169812      -167.8891
   1   1.0000      -3.863031      -105.1184
   2   1.0000      -3.848125      -104.7128
   3   1.0000      -3.848125      -104.7128
   4   1.0000      -1.079007       -29.3613
   5   1.0000      -1.073749       -29.2182
   6   1.0000      -1.073749       -29.2182
   7   1.0000      -1.059090       -28.8193
   8   1.0000      -1.059090       -28.8193
   9   1.0000      -0.503424       -13.6989
  10   0.0000       0.010528         0.2865
  11   0.0000       0.042862         1.1663
  12   0.0000       0.042862         1.1663
  13   0.0000       0.068543         1.8651
  14   0.0000       0.120469         3.2781

E(0)                                       ...   -191.835545157
E(0)                                       ...   -191.835545157
E(CORR)                                    ...     -0.329126597
E(TOT)                                     ...   -192.164671754
E(CCSD(T))                                 ...   -192.170355599

MULLIKEN ATOMIC CHARGES AND SPIN DENSITIES
------------------------------------------
   0 Pb:   -0.000000    2.000000
Sum of atomic charges       :   -0.0000000

LOEWDIN ATOMIC CHARGES AND SPIN DENSITIES
-----------------------------------------
   0 Pb:   -0.000000    2.000000

FINAL SINGLE POINT ENERGY      -192.170355599307

DIPOLE MOMENT
-------------
                                X             Y             Z
Electronic contribution:     -0.00000       0.00000      -0.00000
Nuclear contribution   :      0.00000       0.00000       0.00000
                        -----------------------------------------
Total Dipole Moment    :     -0.00000       0.00000      -0.00000
                        -----------------------------------------
Magnitude (a.u.)       :      0.00000
Magnitude (Debye)      :      0.00000

Rotational constants in cm-1:     0.000000     0.000000     0.000000
Rotational constants in MHz :     0.000000     0.000000     0.000000

                             ****ORCA TERMINATED NORMALLY****
TOTAL RUN TIME: 0 days 0 hours 0 minutes 15 seconds 897 msec
