                         Program Version 4.2.0 -  RELEASE  -
|  1> # input to generate an atomic fitting density for Bi
|  2> # this file is use internally by ORCA
|  3> #
|  4> # atomic ground state (S=4): 1s2 2s2 2p6 3s2 3p6 4s2 3d10 4p6 5s2 4d10 5p6 6s2 4f14 5d10 6p3
|  5> #
|  6> ! RHF AllowRHF def2-SVP def2/J  NoMulliken NoLoewdin NoMayer NoPrintMOs
|  7>
|  8> %output print[p_atomdensfit] 2 end
|  9>
| 10> %scf
| 11>   guess hcore
| 12>   maxiter 1000
| 13>   maxdisk 500000
| 14>   SCFMode Conventional
| 15>   lshift 1.000000
| 16>   hftyp rohf
| 17>   rohf_case sahf
| 18>   rohf_numop   2
| 19>   rohf_norb[1] 3
| 20>   rohf_nel[1]  3
| 21> end
| 22>
| 23> %basis
| 24>   NewECP 83
| 25>     N_core 60
| 26>     lmax f
| 27>     s 4
| 28>       1      13.0430900000    283.2642270000  2
| 29>       2       8.2216820000     62.4719590000  2
| 30>       3       4.2145460000    -13.7133830000  2
| 31>       4       4.1334000000    -18.1943080000  2
| 32>     p 6
| 33>       1      10.4677770000     72.0014990000  2
| 34>       2       9.1189010000    144.0022770000  2
| 35>       3       6.7547910000      5.0079450000  2
| 36>       4       6.2525920000      9.9915500000  2
| 37>       5       4.2145460000    -13.7133830000  2
| 38>       6       4.1334000000    -18.1943080000  2
| 39>     d 6
| 40>       1       8.0814740000     36.3962590000  2
| 41>       2       7.8905950000     54.5976640000  2
| 42>       3       4.9555560000      9.9842940000  2
| 43>       4       4.7045590000     14.9814850000  2
| 44>       5       4.2145460000    -13.7133830000  2
| 45>       6       4.1334000000    -18.1943080000  2
| 46>     f 2
| 47>       1       4.2145460000     13.7133830000  2
| 48>       2       4.1334000000     18.1943080000  2
| 49>   end
| 50>   NewGTO 83
| 51>     s 4
| 52>      1     716.4143531000      0.0016093804
| 53>      2      83.8060590470      0.0090755346
| 54>      3      21.1169628530     -1.1282637962
| 55>      4      15.4914481870      2.0808980196
| 56>     s 2
| 57>      1      23.2398550290     -0.0735378540
| 58>      2       6.6474255000      1.0546329000
| 59>     s 1
| 60>      1       1.7617744005      1.0000000000
| 61>     s 1
| 62>      1       0.8725286600      1.0000000000
| 63>     s 1
| 64>      1       0.2561889600      1.0000000000
| 65>     s 1
| 66>      1       0.0970739130      1.0000000000
| 67>     p 3
| 68>      1      15.2496446690      2.4477011965
| 69>      2      14.8461760530     -2.8094143356
| 70>      3       7.0636826784      1.3180348276
| 71>     p 3
| 72>      1       2.5881255616      0.2841971176
| 73>      2       1.5020208499      0.5115554398
| 74>      3       0.7673272439      0.2585305412
| 75>     p 1
| 76>      1       0.3279764898      1.0000000000
| 77>     p 1
| 78>      1       0.1382033599      1.0000000000
| 79>     p 1
| 80>      1       0.0551373310      1.0000000000
| 81>     s 1
| 82>      1       0.0358089062      1.0000000000
| 83>   end
| 84>   NewAuxGTO 83
| 85>     S 1
| 86>      1 1310.72 1.0
| 87>     S 1
| 88>      1  655.36 1.0
| 89>     S 1
| 90>      1  327.68 1.0
| 91>     S 1
| 92>      1  163.84 1.0
| 93>     S 1
| 94>      1   81.82 1.0
| 95>     S 1
| 96>      1   40.96 1.0
| 97>     S 1
| 98>      1   20.48 1.0
| 99>     S 1
|100>      1   10.24 1.0
|101>     S 1
|102>      1    5.12 1.0
|103>     S 1
|104>      1    2.56 1.0
|105>     S 1
|106>      1    1.28 1.0
|107>     S 1
|108>      1    0.64 1.0
|109>     S 1
|110>      1    0.32 1.0
|111>     S 1
|112>      1    0.16 1.0
|113>     S 1
|114>      1    0.08 1.0
|115>     S 1
|116>      1    0.04 1.0
|117>     S 1
|118>      1    0.02 1.0
|119>     S 1
|120>      1    0.01 1.0
|121>   end
|122> end
|123>
|124> * xyz 0 4
|125> 83  0.0 0.0 0.0
|126> *
|127>
|128>
|129>                          ****END OF INPUT****

CARTESIAN COORDINATES (ANGSTROEM)
---------------------------------
  Bi     0.000000    0.000000    0.000000

 Total Charge           Charge          ....    0
 Multiplicity           Mult            ....    4
 Number of Electrons    NEL             ....   23
 Basis Dimension        Dim             ....   22

ORBITAL ENERGIES
----------------

  NO   OCC          E(Eh)            E(eV)
   0   2.0000     -10.321245      -280.8554
   1   2.0000      -7.539129      -205.1501
   2   2.0000      -7.539129      -205.1501
   3   2.0000      -7.533152      -204.9875
   4   2.0000      -2.720428       -74.0266
   5   2.0000      -1.686344       -45.8878
   6   2.0000      -1.686344       -45.8878
   7   2.0000      -1.671496       -45.4837
   8   2.0000      -0.527389       -14.3510
   9   2.0000      -0.244362        -6.6494
  10   1.0000      -0.294573        -8.0158
  11   1.0000      -0.294573        -8.0158
  12   1.0000      -0.067788        -1.8446
  13   0.0000       0.239883         6.5276
  14   0.0000       0.239883         6.5276
  15   0.0000       0.262360         7.1392
  16   0.0000       1.273235        34.6465
  17   0.0000      31.664499       861.6348

CleanUpVectors: The p-vectors have cracked symmetry
CleanUpVectors: The p-vectors have cracked symmetry
CleanUpVectors: The p-vectors have cracked symmetry
CleanUpVectors: The p-vectors have cracked symmetry
CleanUpVectors: The p-vectors have cracked symmetry
CleanUpVectors: The p-vectors have cracked symmetry
CleanUpVectors: The p-vectors have cracked symmetry
CleanUpVectors: The p-vectors have cracked symmetry
CleanUpVectors: The p-vectors have cracked symmetry
CleanUpVectors: The p-vectors have cracked symmetry
CleanUpVectors: The p-vectors have cracked symmetry
CleanUpVectors: The p-vectors have cracked symmetry
CleanUpVectors: The p-vectors have cracked symmetry
CleanUpVectors: The p-vectors have cracked symmetry
CleanUpVectors: The p-vectors have cracked symmetry
--------------------------
ATOM BASIS FOR ELEMENT Bi
--------------------------
 NewGTO Bi
 S 11
    1        716.414353100000         0.000474772773
    2         83.806059047000         0.002677314031
    3         21.116962853000        -0.332841714009
    4         15.491448187000         0.613872097868
    5         23.239855029000         0.074931661689
    6          6.647425500000        -1.074621999022
    7          1.761774400500         1.261205846793
    8          0.872528660000         0.214882474954
    9          0.256188960000         0.001654289364
   10          0.097073913000        -0.001224079584
   11          0.035808906200         0.000449979546
 P 20
    1         15.249644669000        -0.143183672258
    2         14.846176053000         0.164342878960
    3          7.063682678400        -0.077101350054
    4         15.249644669000        -0.700651746779
    5         14.846176053000         0.804191730787
    6          7.063682678400        -0.377286004351
    7         15.249644669000        -0.232071643140
    8         14.846176053000         0.266366418440
    9          7.063682678400        -0.124965624315
   10          2.588125561600         0.066263347305
   11          1.502020849900         0.119274171602
   12          0.767327243900         0.060278933106
   13          2.588125561600         0.324251566570
   14          1.502020849900         0.583653536473
   15          0.767327243900         0.294967569334
   16          2.588125561600         0.107399423737
   17          1.502020849900         0.193319200097
   18          0.767327243900         0.097699904129
   19          0.327976489800        -0.031391269634
   20          0.327976489800        -0.153609329581
 S 11
    1        716.414353100000        -0.000325488506
    2         83.806059047000        -0.001835477928
    3         21.116962853000         0.228185268000
    4         15.491448187000        -0.420850402079
    5         23.239855029000        -0.060061492229
    6          6.647425500000         0.861363532963
    7          1.761774400500        -2.000389607065
    8          0.872528660000         0.868927945490
    9          0.256188960000         1.166379804077
   10          0.097073913000        -0.287553764908
   11          0.035808906200         0.079079963328
 P 20
    1         15.249644669000        -0.132568789371
    2         14.846176053000         0.152159363996
    3          7.063682678400        -0.071385462283
    4         15.249644669000        -0.247325404939
    5         14.846176053000         0.283874330407
    6          7.063682678400        -0.133179449324
    7         15.249644669000        -0.259260532801
    8         14.846176053000         0.297573191755
    9          7.063682678400        -0.139606260822
   10          2.588125561600         0.081513456815
   11          1.502020849900         0.146724402425
   12          0.767327243900         0.074151765801
   13          2.588125561600         0.152074623374
   14          1.502020849900         0.273734658183
   15          0.767327243900         0.138340370992
   16          2.588125561600         0.159413255146
   17          1.502020849900         0.286944211590
   18          0.767327243900         0.145016231956
   19          0.327976489800        -0.514528231534
   20          0.327976489800        -0.959923552296
 S 11
    1        716.414353100000         0.000476056631
    2         83.806059047000         0.002684553899
    3         21.116962853000        -0.333741769089
    4         15.491448187000         0.615532102239
    5         23.239855029000         0.092476402510
    6          6.647425500000        -1.326237458072
    7          1.761774400500         4.906529204441
    8          0.872528660000        -6.309197707876
    9          0.256188960000         4.746261073416
   10          0.097073913000        -3.290709817975
   11          0.035808906200         1.084313562037
 S 11
    1        716.414353100000         0.004437939721
    2         83.806059047000         0.025026199830
    3         21.116962853000        -3.111238783095
    4         15.491448187000         5.738171023524
    5         23.239855029000         0.353452159982
    6          6.647425500000        -5.068984967835
    7          1.761774400500         3.821152735315
    8          0.872528660000        -2.796546440529
    9          0.256188960000         1.095997101939
   10          0.097073913000        -0.587815466437
   11          0.035808906200         0.177024911192
 S 11
    1        716.414353100000         0.004159225587
    2         83.806059047000         0.023454489520
    3         21.116962853000        -2.915844911590
    4         15.491448187000         5.377798988521
    5         23.239855029000         0.169437519407
    6          6.647425500000        -2.429964606546
    7          1.761774400500         1.246839301583
    8          0.872528660000        -0.853197412216
    9          0.256188960000         0.322396934411
   10          0.097073913000        -0.172194864214
   11          0.035808906200         0.051881298624
 P 20
    1         15.249644669000         0.091691296112
    2         14.846176053000        -0.105241130787
    3          7.063682678400         0.049373805037
    4         15.249644669000        -0.290648454583
    5         14.846176053000         0.333599516188
    6          7.063682678400        -0.156507986463
    7         15.249644669000         0.230383475487
    8         14.846176053000        -0.264428778988
    9          7.063682678400         0.124056582082
   10          2.588125561600        -0.056378839555
   11          1.502020849900        -0.101482035806
   12          0.767327243900        -0.051287120804
   13          2.588125561600         0.178712956220
   14          1.502020849900         0.321683716180
   15          0.767327243900         0.162572927133
   16          2.588125561600        -0.141657426074
   17          1.502020849900        -0.254983680018
   18          0.767327243900        -0.128863977711
   19          0.327976489800         0.355873812076
   20          0.327976489800        -1.128069706634
 P 20
    1         15.249644669000         0.028586936986
    2         14.846176053000        -0.032811419423
    3          7.063682678400         0.015393455139
    4         15.249644669000        -0.129629403976
    5         14.846176053000         0.148785606007
    6          7.063682678400        -0.069802666014
    7         15.249644669000         0.076142376711
    8         14.846176053000        -0.087394443808
    9          7.063682678400         0.041001043961
   10          2.588125561600        -0.018868912039
   11          1.502020849900        -0.033964083373
   12          0.767327243900        -0.017164811813
   13          2.588125561600         0.085562360965
   14          1.502020849900         0.154012438842
   15          0.767327243900         0.077835002949
   16          2.588125561600        -0.050258053505
   17          1.502020849900        -0.090464607387
   18          0.767327243900        -0.045719118765
   19          0.327976489800         0.200381197535
   20          0.327976489800        -0.908642126189
 P 20
    1         15.249644669000         0.051399859240
    2         14.846176053000        -0.058995559426
    3          7.063682678400         0.027677726639
    4         15.249644669000        -0.128070990423
    5         14.846176053000         0.146996895284
    6          7.063682678400        -0.068963493593
    7         15.249644669000         0.125291769017
    8         14.846176053000        -0.143806969786
    9          7.063682678400         0.067466942212
   10          2.588125561600        -0.034698387123
   11          1.502020849900        -0.062457173510
   12          0.767327243900        -0.031564686079
   13          2.588125561600         0.086456594837
   14          1.502020849900         0.155622061788
   15          0.767327243900         0.078648476248
   16          2.588125561600        -0.084580432106
   17          1.502020849900        -0.152244964727
   18          0.767327243900        -0.076941754625
   19          0.327976489800         0.496522392857
   20          0.327976489800        -1.237165151056
 P 20
    1         15.249644669000         0.180888881583
    2         14.846176053000        -0.207620038670
    3          7.063682678400         0.097404800142
    4         15.249644669000        -3.060607272453
    5         14.846176053000         3.512893632264
    6          7.063682678400        -1.648071661879
    7         15.249644669000         0.729589842383
    8         14.846176053000        -0.837406201880
    9          7.063682678400         0.392868550907
   10          2.588125561600        -0.012224991263
   11          1.502020849900        -0.022005011293
   12          0.767327243900        -0.011120920698
   13          2.588125561600         0.206844648708
   14          1.502020849900         0.372320824833
   15          0.767327243900         0.188163973746
   16          2.588125561600        -0.049307781500
   17          1.502020849900        -0.088754115678
   18          0.767327243900        -0.044854668282
   19          0.327976489800         0.031657907378
   20          0.327976489800        -0.535646086729
 end
  // -----------------------------------------------
  // The basis set
  // -----------------------------------------------
  BAS[ATNO] = new BFNGauss[NSH];
  // Basis function   1 L = s
  InitBFNGauss(BAS[ATNO][  0]);
  BAS[ATNO][  0].l  = 0;
  BAS[ATNO][  0].ng = 11;
  BAS[ATNO][  0].a[  0] =       716.414353100000;     BAS[ATNO][  0].d[  0] =         0.000474772773;
  BAS[ATNO][  0].a[  1] =        83.806059047000;     BAS[ATNO][  0].d[  1] =         0.002677314031;
  BAS[ATNO][  0].a[  2] =        21.116962853000;     BAS[ATNO][  0].d[  2] =        -0.332841714009;
  BAS[ATNO][  0].a[  3] =        15.491448187000;     BAS[ATNO][  0].d[  3] =         0.613872097868;
  BAS[ATNO][  0].a[  4] =        23.239855029000;     BAS[ATNO][  0].d[  4] =         0.074931661689;
  BAS[ATNO][  0].a[  5] =         6.647425500000;     BAS[ATNO][  0].d[  5] =        -1.074621999022;
  BAS[ATNO][  0].a[  6] =         1.761774400500;     BAS[ATNO][  0].d[  6] =         1.261205846793;
  BAS[ATNO][  0].a[  7] =         0.872528660000;     BAS[ATNO][  0].d[  7] =         0.214882474954;
  BAS[ATNO][  0].a[  8] =         0.256188960000;     BAS[ATNO][  0].d[  8] =         0.001654289364;
  BAS[ATNO][  0].a[  9] =         0.097073913000;     BAS[ATNO][  0].d[  9] =        -0.001224079584;
  BAS[ATNO][  0].a[ 10] =         0.035808906200;     BAS[ATNO][  0].d[ 10] =         0.000449979546;

FINAL SINGLE POINT ENERGY      -191.864302544235

DIPOLE MOMENT
-------------
                                X             Y             Z
Electronic contribution:      0.00000       0.00000       0.00000
Nuclear contribution   :      0.00000       0.00000       0.00000
                        -----------------------------------------
Total Dipole Moment    :      0.00000       0.00000       0.00000
                        -----------------------------------------
Magnitude (a.u.)       :      0.00000
Magnitude (Debye)      :      0.00000

Rotational constants in cm-1:     0.000000     0.000000     0.000000
Rotational constants in MHz :     0.000000     0.000000     0.000000

                             ****ORCA TERMINATED NORMALLY****
TOTAL RUN TIME: 0 days 0 hours 0 minutes 0 seconds 965 msec
