                         Program Version 4.2.0 -  RELEASE  -
|  1> #
|  2> # 84_Po CCSD(T)/Def2-TZVPPD
|  3> #
|  4> ! CCSD(T) Def2-TZVPPD tightscf slowconv
|  5>
|  6> *xyz 0 3
|  7>  Po 0.0 0.0 0.0
|  8> *
|  9>
| 10> %maxcore 5000
| 11>
| 12> %pal
| 13> nprocs 24
| 14> end
| 15>
| 16>
| 17>                          ****END OF INPUT****

CARTESIAN COORDINATES (ANGSTROEM)
---------------------------------
  Po     0.000000    0.000000    0.000000

 Total Charge           Charge          ....    0
 Multiplicity           Mult            ....    3
 Number of Electrons    NEL             ....   24
 Basis Dimension        Dim             ....   59

ORBITAL ENERGIES
----------------
                 SPIN UP ORBITALS
  NO   OCC          E(Eh)            E(eV)
   0   1.0000      -7.245956      -197.1725
   1   1.0000      -4.687556      -127.5549
   2   1.0000      -4.687556      -127.5549
   3   1.0000      -4.669301      -127.0581
   4   1.0000      -1.580951       -43.0199
   5   1.0000      -1.580951       -43.0199
   6   1.0000      -1.563947       -42.5572
   7   1.0000      -1.563947       -42.5572
   8   1.0000      -1.558662       -42.4133
   9   1.0000      -0.882660       -24.0184
  10   1.0000      -0.376819       -10.2538
  11   1.0000      -0.376819       -10.2538
  12   1.0000      -0.326300        -8.8791
  13   0.0000       0.049947         1.3591
  14   0.0000       0.049947         1.3591
  15   0.0000       0.055117         1.4998
  16   0.0000       0.066732         1.8159
  17   0.0000       0.130308         3.5459

                 SPIN DOWN ORBITALS
  NO   OCC          E(Eh)            E(eV)
   0   1.0000      -7.234868      -196.8708
   1   1.0000      -4.674455      -127.1984
   2   1.0000      -4.674455      -127.1984
   3   1.0000      -4.669632      -127.0671
   4   1.0000      -1.563920       -42.5564
   5   1.0000      -1.563920       -42.5564
   6   1.0000      -1.555105       -42.3166
   7   1.0000      -1.555105       -42.3166
   8   1.0000      -1.552492       -42.2455
   9   1.0000      -0.733110       -19.9489
  10   1.0000      -0.291760        -7.9392
  11   0.0000      -0.010625        -0.2891
  12   0.0000      -0.010625        -0.2891
  13   0.0000       0.055987         1.5235
  14   0.0000       0.062643         1.7046
  15   0.0000       0.062643         1.7046

E(0)                                       ...   -236.725824082
E(0)                                       ...   -236.725824082
E(CORR)                                    ...     -0.407188564
E(TOT)                                     ...   -237.133012646
E(CCSD(T))                                 ...   -237.139394208

MULLIKEN ATOMIC CHARGES AND SPIN DENSITIES
------------------------------------------
   0 Po:   -0.000000    2.000000
Sum of atomic charges       :   -0.0000000

LOEWDIN ATOMIC CHARGES AND SPIN DENSITIES
-----------------------------------------
   0 Po:   -0.000000    2.000000

FINAL SINGLE POINT ENERGY      -237.139394207770

DIPOLE MOMENT
-------------
                                X             Y             Z
Electronic contribution:     -0.00000      -0.00000      -0.00000
Nuclear contribution   :      0.00000       0.00000       0.00000
                        -----------------------------------------
Total Dipole Moment    :     -0.00000      -0.00000      -0.00000
                        -----------------------------------------
Magnitude (a.u.)       :      0.00000
Magnitude (Debye)      :      0.00000

Rotational constants in cm-1:     0.000000     0.000000     0.000000
Rotational constants in MHz :     0.000000     0.000000     0.000000

                             ****ORCA TERMINATED NORMALLY****
TOTAL RUN TIME: 0 days 0 hours 0 minutes 27 seconds 546 msec
