                         Program Version 4.2.0 -  RELEASE  -
|  1> # input to generate an atomic fitting density for Po
|  2> # this file is use internally by ORCA
|  3> #
|  4> # atomic ground state (S=3): 1s2 2s2 2p6 3s2 3p6 4s2 3d10 4p6 5s2 4d10 5p6 6s2 4f14 5d10 6p4
|  5> #
|  6> ! RHF AllowRHF def2-SVP def2/J  NoMulliken NoLoewdin NoMayer NoPrintMOs
|  7>
|  8> %output print[p_atomdensfit] 2 end
|  9>
| 10> %scf
| 11>   guess hcore
| 12>   maxiter 1000
| 13>   maxdisk 500000
| 14>   SCFMode Conventional
| 15>   lshift 1.000000
| 16>   hftyp rohf
| 17>   rohf_case sahf
| 18>   rohf_numop   2
| 19>   rohf_norb[1] 3
| 20>   rohf_nel[1]  4
| 21> end
| 22>
| 23> %basis
| 24>   NewECP 84
| 25>     N_core 60
| 26>     lmax f
| 27>     s 6
| 28>       1      13.2772270000    283.2447060000  2
| 29>       2       8.3995180000     62.3964610000  2
| 30>       3       5.0132700000    -17.4282950000  2
| 31>       4       4.9846400000    -23.3803530000  2
| 32>       5       1.3267600000     -0.1633920000  2
| 33>       6       1.5287580000     -0.3245660000  2
| 34>     p 8
| 35>       1      10.6656820000     71.9917160000  2
| 36>       2       9.2837530000    143.9718710000  2
| 37>       3       6.8727490000      4.9496150000  2
| 38>       4       6.3261500000      9.7404990000  2
| 39>       5       5.0132700000    -17.4282950000  2
| 40>       6       4.9846400000    -23.3803530000  2
| 41>       7       1.3267600000     -0.1633920000  2
| 42>       8       1.5287580000     -0.3245660000  2
| 43>     d 8
| 44>       1       8.2148660000     36.3783830000  2
| 45>       2       8.0086960000     54.5627150000  2
| 46>       3       5.0552270000      9.8894990000  2
| 47>       4       4.7825530000     14.6938770000  2
| 48>       5       5.0132700000    -17.4282950000  2
| 49>       6       4.9846400000    -23.3803530000  2
| 50>       7       1.3267600000     -0.1633920000  2
| 51>       8       1.5287580000     -0.3245660000  2
| 52>     f 4
| 53>       1       5.0132700000     17.4282950000  2
| 54>       2       4.9846400000     23.3803530000  2
| 55>       3       1.3267600000      0.1633920000  2
| 56>       4       1.5287580000      0.3245660000  2
| 57>   end
| 58>   NewGTO 84
| 59>     s 5
| 60>      1    6744.8211765000      0.0002667131
| 61>      2     744.4189253200      0.0024726498
| 62>      3     131.0402930900      0.0076510921
| 63>      4      19.6620210300     -2.2326123855
| 64>      5      16.6230256090      3.1910959564
| 65>     s 2
| 66>      1      23.0940029650     -0.0760848894
| 67>      2       6.9707398381      1.0578437560
| 68>     s 1
| 69>      1       1.8497377593      1.0000000000
| 70>     s 1
| 71>      1       0.9308299926      1.0000000000
| 72>     s 1
| 73>      1       0.2867302646      1.0000000000
| 74>     s 1
| 75>      1       0.1097921217      1.0000000000
| 76>     p 3
| 77>      1     253.9902449700      0.0003988866
| 78>      2       9.8712718748      1.1685916546
| 79>      3       7.4489893496     -2.1066457855
| 80>     p 4
| 81>      1       8.9027395407     -0.1226383198
| 82>      2       5.7414667465      0.2337889888
| 83>      3       1.9896329823      0.5886127763
| 84>      4       0.9470321082      0.3514926778
| 85>     p 1
| 86>      1       0.3707113628      1.0000000000
| 87>     p 1
| 88>      1       0.1555470609      1.0000000000
| 89>     p 1
| 90>      1       0.0611737208      1.0000000000
| 91>     s 1
| 92>      1       0.0358125404      1.0000000000
| 93>     p 1
| 94>      1       0.0194377296      1.0000000000
| 95>   end
| 96>   NewAuxGTO 84
| 97>     S 1
| 98>      1 1310.72 1.0
| 99>     S 1
|100>      1  655.36 1.0
|101>     S 1
|102>      1  327.68 1.0
|103>     S 1
|104>      1  163.84 1.0
|105>     S 1
|106>      1   81.82 1.0
|107>     S 1
|108>      1   40.96 1.0
|109>     S 1
|110>      1   20.48 1.0
|111>     S 1
|112>      1   10.24 1.0
|113>     S 1
|114>      1    5.12 1.0
|115>     S 1
|116>      1    2.56 1.0
|117>     S 1
|118>      1    1.28 1.0
|119>     S 1
|120>      1    0.64 1.0
|121>     S 1
|122>      1    0.32 1.0
|123>     S 1
|124>      1    0.16 1.0
|125>     S 1
|126>      1    0.08 1.0
|127>     S 1
|128>      1    0.04 1.0
|129>     S 1
|130>      1    0.02 1.0
|131>     S 1
|132>      1    0.01 1.0
|133>   end
|134> end
|135>
|136> * xyz 0 3
|137> 84  0.0 0.0 0.0
|138> *
|139>
|140>
|141>                          ****END OF INPUT****

CARTESIAN COORDINATES (ANGSTROEM)
---------------------------------
  Po     0.000000    0.000000    0.000000

 Total Charge           Charge          ....    0
 Multiplicity           Mult            ....    3
 Number of Electrons    NEL             ....   24
 Basis Dimension        Dim             ....   25

ORBITAL ENERGIES
----------------

  NO   OCC          E(Eh)            E(eV)
   0   2.0000     -11.140004      -303.1349
   1   2.0000      -8.206103      -223.2994
   2   2.0000      -8.206103      -223.2994
   3   2.0000      -8.201564      -223.1759
   4   2.0000      -3.039528       -82.7098
   5   2.0000      -1.934941       -52.6524
   6   2.0000      -1.934941       -52.6524
   7   2.0000      -1.924344       -52.3641
   8   2.0000      -0.627633       -17.0788
   9   2.0000      -0.305905        -8.3241
  10   1.3333      -0.325923        -8.8688
  11   1.3333      -0.325923        -8.8688
  12   1.3333      -0.078754        -2.1430
  13   0.0000       0.020077         0.5463
  14   0.0000       0.020077         0.5463
  15   0.0000       0.025127         0.6838
  16   0.0000       0.304278         8.2798
  17   0.0000       0.304278         8.2798

CleanUpVectors: The p-vectors have cracked symmetry
CleanUpVectors: The p-vectors have cracked symmetry
CleanUpVectors: The p-vectors have cracked symmetry
CleanUpVectors: The p-vectors have cracked symmetry
CleanUpVectors: The p-vectors have cracked symmetry
CleanUpVectors: The p-vectors have cracked symmetry
CleanUpVectors: The p-vectors have cracked symmetry
CleanUpVectors: The p-vectors have cracked symmetry
CleanUpVectors: The p-vectors have cracked symmetry
CleanUpVectors: The p-vectors have cracked symmetry
CleanUpVectors: The p-vectors have cracked symmetry
CleanUpVectors: The p-vectors have cracked symmetry
CleanUpVectors: The p-vectors have cracked symmetry
CleanUpVectors: The p-vectors have cracked symmetry
CleanUpVectors: The p-vectors have cracked symmetry
CleanUpVectors: The p-vectors have cracked symmetry
CleanUpVectors: The p-vectors have cracked symmetry
CleanUpVectors: The p-vectors have cracked symmetry
--------------------------
ATOM BASIS FOR ELEMENT Po
--------------------------
 NewGTO Po
 S 12
    1       6744.821176500000         0.000082208521
    2        744.418925320000         0.000762140603
    3        131.040293090000         0.002358282983
    4         19.662021030000        -0.688154282630
    5         16.623025609000         0.983586028163
    6         23.094002965000         0.079025915108
    7          6.970739838100        -1.098734210145
    8          1.849737759300         1.282328962566
    9          0.930829992600         0.197919038313
   10          0.286730264600         0.005871528099
   11          0.109792121700        -0.002994053218
   12          0.035812540400         0.000839594120
 P 23
    1        253.990244970000         0.000023143540
    2          9.871271874800         0.067802095073
    3          7.448989349600        -0.122228322675
    4        253.990244970000        -0.000040451308
    5          9.871271874800        -0.118507518310
    6          7.448989349600         0.213636100356
    7        253.990244970000        -0.000149724133
    8          9.871271874800        -0.438636876906
    9          7.448989349600         0.790740310750
   10          8.902739540700        -0.023374574328
   11          5.741466746500         0.044559629524
   12          1.989632982300         0.112188206039
   13          0.947032108200         0.066993674867
   14          8.902739540700         0.040855120954
   15          5.741466746500        -0.077883302957
   16          1.989632982300        -0.196087537811
   17          0.947032108200        -0.117094525507
   18          8.902739540700         0.151218782711
   19          5.741466746500        -0.288272754839
   20          1.989632982300        -0.725787075894
   21          0.947032108200        -0.433406907037
   22          0.370711362800        -0.022802181909
   23          0.370711362800         0.039854668019
 S 12
    1       6744.821176500000         0.000057311523
    2        744.418925320000         0.000531324957
    3        131.040293090000         0.001644072759
    4         19.662021030000        -0.479745526089
    5         16.623025609000         0.685705238557
    6         23.094002965000         0.064633214141
    7          6.970739838100        -0.898625765890
    8          1.849737759300         2.100156289849
    9          0.930829992600        -0.937745646717
   10          0.286730264600        -1.143533480605
   11          0.109792121700         0.245191620333
   12          0.035812540400        -0.058722582090
 P 23
    1        253.990244970000         0.000035509746
    2          9.871271874800         0.104030552358
    3          7.448989349600        -0.187538156571
    4        253.990244970000        -0.000076815779
    5          9.871271874800        -0.225042101311
    6          7.448989349600         0.405688327843
    7        253.990244970000        -0.000013559068
    8          9.871271874800        -0.039723102319
    9          7.448989349600         0.071609707085
   10          8.902739540700        -0.046610669605
   11          5.741466746500         0.088855272415
   12          1.989632982300         0.223711770402
   13          0.947032108200         0.133590456069
   14          8.902739540700         0.100829638926
   15          5.741466746500        -0.192214467419
   16          1.989632982300        -0.483940205624
   17          0.947032108200        -0.288986997257
   18          8.902739540700         0.017797852226
   19          5.741466746500        -0.033928562309
   20          1.989632982300        -0.085422266289
   21          0.947032108200        -0.051010277606
   22          0.370711362800        -0.622830115998
   23          0.370711362800         1.347325327865
 S 12
    1       6744.821176500000         0.000082330900
    2        744.418925320000         0.000763275159
    3        131.040293090000         0.002361793627
    4         19.662021030000        -0.689178699438
    5         16.623025609000         0.985050237693
    6         23.094002965000         0.097833475816
    7          6.970739838100        -1.360224511543
    8          1.849737759300         5.142014383800
    9          0.930829992600        -6.726175179228
   10          0.286730264600         4.975768099758
   11          0.109792121700        -3.176880906792
   12          0.035812540400         0.938309524398
 P 23
    1        253.990244970000         0.000237959614
    2          9.871271874800         0.697134522875
    3          7.448989349600        -1.256739682129
    4        253.990244970000        -0.000518899484
    5          9.871271874800        -1.520185452584
    6          7.448989349600         2.740471630323
    7        253.990244970000        -0.000030221289
    8          9.871271874800        -0.088537309273
    9          7.448989349600         0.159608147726
   10          8.902739540700        -0.049593990674
   11          5.741466746500         0.094542463963
   12          1.989632982300         0.238030467034
   13          0.947032108200         0.142140928000
   14          8.902739540700         0.108145645760
   15          5.741466746500        -0.206161183605
   16          1.989632982300        -0.519053986546
   17          0.947032108200        -0.309955344158
   18          8.902739540700         0.006298523952
   19          5.741466746500        -0.012007059035
   20          1.989632982300        -0.030230287534
   21          0.947032108200        -0.018052147598
   22          0.370711362800        -0.295474276411
   23          0.370711362800         0.644317103621
 P 23
    1        253.990244970000        -0.000003454358
    2          9.871271874800        -0.010120003784
    3          7.448989349600         0.018243552601
    4        253.990244970000         0.000013334725
    5          9.871271874800         0.039065860529
    6          7.448989349600        -0.070424882907
    7        253.990244970000        -0.000084591411
    8          9.871271874800        -0.247821855591
    9          7.448989349600         0.446753890104
   10          8.902739540700         0.004534246354
   11          5.741466746500        -0.008643765439
   12          1.989632982300        -0.021762491033
   13          0.947032108200        -0.012995566112
   14          8.902739540700        -0.017503376429
   15          5.741466746500         0.033367194548
   16          1.989632982300         0.084008905300
   17          0.947032108200         0.050166282948
   18          8.902739540700         0.111036059793
   19          5.741466746500        -0.211671263776
   20          1.989632982300        -0.532926768166
   21          0.947032108200        -0.318239536001
   22          0.370711362800         0.060588384734
   23          0.370711362800        -0.233887006208
 P 23
    1        253.990244970000         0.000000349881
    2          9.871271874800         0.001025022053
    3          7.448989349600        -0.001847829718
    4        253.990244970000         0.000001700178
    5          9.871271874800         0.004980900236
    6          7.448989349600        -0.008979178012
    7        253.990244970000        -0.000036141933
    8          9.871271874800        -0.105882626708
    9          7.448989349600         0.190876931590
   10          8.902739540700        -0.000492276697
   11          5.741466746500         0.000938441356
   12          1.989632982300         0.002362722791
   13          0.947032108200         0.001410910184
   14          8.902739540700        -0.002392125232
   15          5.741466746500         0.004560177765
   16          1.989632982300         0.011481203236
   17          0.947032108200         0.006856050416
   18          8.902739540700         0.050851149591
   19          5.741466746500        -0.096939022498
   20          1.989632982300        -0.244064305412
   21          0.947032108200        -0.145744060814
   22          0.370711362800        -0.011257014632
   23          0.370711362800        -0.054701327350
 P 23
    1        253.990244970000         0.000004779620
    2          9.871271874800         0.014002537615
    3          7.448989349600        -0.025242681426
    4        253.990244970000        -0.000010490224
    5          9.871271874800        -0.030732514477
    6          7.448989349600         0.055402177352
    7        253.990244970000         0.000000384957
    8          9.871271874800         0.001127782162
    9          7.448989349600        -0.002033077619
   10          8.902739540700        -0.006786702793
   11          5.741466746500         0.012937688530
   12          1.989632982300         0.032573342327
   13          0.947032108200         0.019451312952
   14          8.902739540700         0.014895331659
   15          5.741466746500        -0.028395403102
   16          1.989632982300        -0.071491378356
   17          0.947032108200        -0.042691387326
   18          8.902739540700        -0.000546609662
   19          5.741466746500         0.001042017865
   20          1.989632982300         0.002623498358
   21          0.947032108200         0.001566633448
   22          0.370711362800        -0.153820766981
   23          0.370711362800         0.337603017248
 P 23
    1        253.990244970000         0.000017424687
    2          9.871271874800         0.051047951950
    3          7.448989349600        -0.092025261698
    4        253.990244970000        -0.000038023426
    5          9.871271874800        -0.111394714391
    6          7.448989349600         0.200813692854
    7        253.990244970000        -0.000001820122
    8          9.871271874800        -0.005332290199
    9          7.448989349600         0.009612636400
   10          8.902739540700        -0.025053744437
   11          5.741466746500         0.047760680245
   12          1.989632982300         0.120247522097
   13          0.947032108200         0.071806330481
   14          8.902739540700         0.054671237522
   15          5.741466746500        -0.104221367004
   16          1.989632982300        -0.262399133923
   17          0.947032108200        -0.156692783352
   18          8.902739540700         0.002617026361
   19          5.741466746500        -0.004988913315
   20          1.989632982300        -0.012560634836
   21          0.947032108200        -0.007500637688
   22          0.370711362800        -0.784848148207
   23          0.370711362800         1.712662936914
 P 23
    1        253.990244970000        -0.000519791590
    2          9.871271874800        -1.522798995252
    3          7.448989349600         2.745183120967
    4        253.990244970000        -0.000237425165
    5          9.871271874800        -0.695568781576
    6          7.448989349600         1.253917085977
    7        253.990244970000        -0.000016200853
    8          9.871271874800        -0.047462566913
    9          7.448989349600         0.085561809518
   10          8.902739540700         0.108348960923
   11          5.741466746500        -0.206548769202
   12          1.989632982300        -0.520029814515
   13          0.947032108200        -0.310538064071
   14          8.902739540700         0.049490546664
   15          5.741466746500        -0.094345265644
   16          1.989632982300        -0.237533978938
   17          0.947032108200        -0.141844447975
   18          8.902739540700         0.003377018125
   19          5.741466746500        -0.006437707675
   20          1.989632982300        -0.016208278272
   21          0.947032108200        -0.009678843820
   22          0.370711362800         0.645669120884
   23          0.370711362800         0.294922235380
 end
  // -----------------------------------------------
  // The basis set
  // -----------------------------------------------
  BAS[ATNO] = new BFNGauss[NSH];
  // Basis function   1 L = s
  InitBFNGauss(BAS[ATNO][  0]);
  BAS[ATNO][  0].l  = 0;
  BAS[ATNO][  0].ng = 12;
  BAS[ATNO][  0].a[  0] =      6744.821176500000;     BAS[ATNO][  0].d[  0] =         0.000082208521;
  BAS[ATNO][  0].a[  1] =       744.418925320000;     BAS[ATNO][  0].d[  1] =         0.000762140603;
  BAS[ATNO][  0].a[  2] =       131.040293090000;     BAS[ATNO][  0].d[  2] =         0.002358282983;
  BAS[ATNO][  0].a[  3] =        19.662021030000;     BAS[ATNO][  0].d[  3] =        -0.688154282630;
  BAS[ATNO][  0].a[  4] =        16.623025609000;     BAS[ATNO][  0].d[  4] =         0.983586028163;
  BAS[ATNO][  0].a[  5] =        23.094002965000;     BAS[ATNO][  0].d[  5] =         0.079025915108;
  BAS[ATNO][  0].a[  6] =         6.970739838100;     BAS[ATNO][  0].d[  6] =        -1.098734210145;
  BAS[ATNO][  0].a[  7] =         1.849737759300;     BAS[ATNO][  0].d[  7] =         1.282328962566;
  BAS[ATNO][  0].a[  8] =         0.930829992600;     BAS[ATNO][  0].d[  8] =         0.197919038313;
  BAS[ATNO][  0].a[  9] =         0.286730264600;     BAS[ATNO][  0].d[  9] =         0.005871528099;
  BAS[ATNO][  0].a[ 10] =         0.109792121700;     BAS[ATNO][  0].d[ 10] =        -0.002994053218;
  BAS[ATNO][  0].a[ 11] =         0.035812540400;     BAS[ATNO][  0].d[ 11] =         0.000839594120;

FINAL SINGLE POINT ENERGY      -211.062114022827

DIPOLE MOMENT
-------------
                                X             Y             Z
Electronic contribution:     -0.00000       0.00000      -0.00000
Nuclear contribution   :      0.00000       0.00000       0.00000
                        -----------------------------------------
Total Dipole Moment    :     -0.00000       0.00000      -0.00000
                        -----------------------------------------
Magnitude (a.u.)       :      0.00000
Magnitude (Debye)      :      0.00000

Rotational constants in cm-1:     0.000000     0.000000     0.000000
Rotational constants in MHz :     0.000000     0.000000     0.000000

                             ****ORCA TERMINATED NORMALLY****
TOTAL RUN TIME: 0 days 0 hours 0 minutes 1 seconds 26 msec
