                         Program Version 4.2.0 -  RELEASE  -
|  1> # input to generate an atomic fitting density for At
|  2> # this file is use internally by ORCA
|  3> #
|  4> # atomic ground state (S=2): 1s2 2s2 2p6 3s2 3p6 4s2 3d10 4p6 5s2 4d10 5p6 6s2 4f14 5d10 6p5
|  5> #
|  6> ! RHF AllowRHF def2-SVP def2/J  NoMulliken NoLoewdin NoMayer NoPrintMOs
|  7>
|  8> %output print[p_atomdensfit] 2 end
|  9>
| 10> %scf
| 11>   guess hcore
| 12>   maxiter 1000
| 13>   maxdisk 500000
| 14>   SCFMode Conventional
| 15>   lshift 1.000000
| 16>   hftyp rohf
| 17>   rohf_case sahf
| 18>   rohf_numop   2
| 19>   rohf_norb[1] 3
| 20>   rohf_nel[1]  5
| 21> end
| 22>
| 23> %basis
| 24>   NewECP 85
| 25>     N_core 60
| 26>     lmax f
| 27>     s 7
| 28>       1      30.2008320000     49.9571580000  2
| 29>       2      13.6123060000    283.2103710000  2
| 30>       3       8.5293400000     62.2810520000  2
| 31>       4       5.8121630000    -19.8701980000  2
| 32>       5       5.7537150000    -26.4164520000  2
| 33>       6       2.5134720000     -0.9949700000  2
| 34>       7       2.5362610000     -1.4907010000  2
| 35>     p 8
| 36>       1      10.8540650000     71.9823710000  2
| 37>       2       9.4682290000    143.9035320000  2
| 38>       3       7.0311140000      4.8717590000  2
| 39>       4       6.1438580000      8.9830590000  2
| 40>       5       5.8121630000    -19.8701980000  2
| 41>       6       5.7537150000    -26.4164520000  2
| 42>       7       2.5134720000     -0.9949700000  2
| 43>       8       2.5362610000     -1.4907010000  2
| 44>     d 8
| 45>       1       8.3135150000     36.3632370000  2
| 46>       2       7.9989650000     54.5489700000  2
| 47>       3       5.1799660000      9.7762850000  2
| 48>       4       4.9422260000     14.2647550000  2
| 49>       5       5.8121630000    -19.8701980000  2
| 50>       6       5.7537150000    -26.4164520000  2
| 51>       7       2.5134720000     -0.9949700000  2
| 52>       8       2.5362610000     -1.4907010000  2
| 53>     f 4
| 54>       1       5.8121630000     19.8701980000  2
| 55>       2       5.7537150000     26.4164520000  2
| 56>       3       2.5134720000      0.9949700000  2
| 57>       4       2.5362610000      1.4907010000  2
| 58>   end
| 59>   NewGTO 85
| 60>     s 5
| 61>      1    3635.9809356000      0.0005061663
| 62>      2     537.6412982300      0.0030580201
| 63>      3      91.6000307560      0.0103842563
| 64>      4      20.2000058040     -2.2052996426
| 65>      5      16.8938738240      3.1573342085
| 66>     s 2
| 67>      1      18.1772169380     -0.1521964109
| 68>      2       7.2317852082      1.1274071816
| 69>     s 1
| 70>      1       1.9496199739      1.0000000000
| 71>     s 1
| 72>      1       0.9922669524      1.0000000000
| 73>     s 1
| 74>      1       0.3195717888      1.0000000000
| 75>     s 1
| 76>      1       0.1234253981      1.0000000000
| 77>     p 3
| 78>      1     216.8151892800      0.0006470485
| 79>      2      10.5922981150      0.8646381039
| 80>      3       7.4596585430     -1.8043415387
| 81>     p 4
| 82>      1       8.9484156471     -0.1382094842
| 83>      2       5.9694592464      0.2490056159
| 84>      3       2.1099088209      0.5861582250
| 85>      4       1.0236370373      0.3503576874
| 86>     p 1
| 87>      1       0.4218635656      1.0000000000
| 88>     p 1
| 89>      1       0.1775713227      1.0000000000
| 90>     p 1
| 91>      1       0.0696708869      1.0000000000
| 92>     s 1
| 93>      1       0.0409363782      1.0000000000
| 94>     p 1
| 95>      1       0.0203979066      1.0000000000
| 96>   end
| 97>   NewAuxGTO 85
| 98>     S 1
| 99>      1 1310.72 1.0
|100>     S 1
|101>      1  655.36 1.0
|102>     S 1
|103>      1  327.68 1.0
|104>     S 1
|105>      1  163.84 1.0
|106>     S 1
|107>      1   81.82 1.0
|108>     S 1
|109>      1   40.96 1.0
|110>     S 1
|111>      1   20.48 1.0
|112>     S 1
|113>      1   10.24 1.0
|114>     S 1
|115>      1    5.12 1.0
|116>     S 1
|117>      1    2.56 1.0
|118>     S 1
|119>      1    1.28 1.0
|120>     S 1
|121>      1    0.64 1.0
|122>     S 1
|123>      1    0.32 1.0
|124>     S 1
|125>      1    0.16 1.0
|126>     S 1
|127>      1    0.08 1.0
|128>     S 1
|129>      1    0.04 1.0
|130>     S 1
|131>      1    0.02 1.0
|132>     S 1
|133>      1    0.01 1.0
|134>   end
|135> end
|136>
|137> * xyz 0 2
|138> 85  0.0 0.0 0.0
|139> *
|140>
|141>
|142>                          ****END OF INPUT****

CARTESIAN COORDINATES (ANGSTROEM)
---------------------------------
  At     0.000000    0.000000    0.000000

 Total Charge           Charge          ....    0
 Multiplicity           Mult            ....    2
 Number of Electrons    NEL             ....   25
 Basis Dimension        Dim             ....   25

ORBITAL ENERGIES
----------------

  NO   OCC          E(Eh)            E(eV)
   0   2.0000     -11.967564      -325.6540
   1   2.0000      -8.874804      -241.4957
   2   2.0000      -8.874804      -241.4957
   3   2.0000      -8.872200      -241.4248
   4   2.0000      -3.350496       -91.1716
   5   2.0000      -2.175435       -59.1966
   6   2.0000      -2.175435       -59.1966
   7   2.0000      -2.169710       -59.0408
   8   2.0000      -0.719107       -19.5679
   9   2.0000      -0.360509        -9.8099
  10   1.6667      -0.366330        -9.9684
  11   1.6667      -0.366330        -9.9684
  12   1.6667      -0.078107        -2.1254
  13   0.0000       0.027078         0.7368
  14   0.0000       0.027078         0.7368
  15   0.0000       0.029448         0.8013
  16   0.0000       0.346439         9.4271
  17   0.0000       0.346439         9.4271

CleanUpVectors: The p-vectors have cracked symmetry
CleanUpVectors: The p-vectors have cracked symmetry
CleanUpVectors: The p-vectors have cracked symmetry
CleanUpVectors: The p-vectors have cracked symmetry
CleanUpVectors: The p-vectors have cracked symmetry
CleanUpVectors: The p-vectors have cracked symmetry
CleanUpVectors: The p-vectors have cracked symmetry
CleanUpVectors: The p-vectors have cracked symmetry
CleanUpVectors: The p-vectors have cracked symmetry
CleanUpVectors: The p-vectors have cracked symmetry
CleanUpVectors: The p-vectors have cracked symmetry
CleanUpVectors: The p-vectors have cracked symmetry
CleanUpVectors: The p-vectors have cracked symmetry
CleanUpVectors: The p-vectors have cracked symmetry
CleanUpVectors: The p-vectors have cracked symmetry
CleanUpVectors: The p-vectors have cracked symmetry
CleanUpVectors: The p-vectors have cracked symmetry
CleanUpVectors: The p-vectors have cracked symmetry
--------------------------
ATOM BASIS FOR ELEMENT At
--------------------------
 NewGTO At
 S 12
    1       3635.980935600000         0.000116650636
    2        537.641298230000         0.000704748599
    3         91.600030756000         0.002393146493
    4         20.200005804000        -0.508231398938
    5         16.893873824000         0.727636440284
    6         18.177216938000         0.149472707713
    7          7.231785208200        -1.107231130701
    8          1.949619973900         1.302042488698
    9          0.992266952400         0.187316495473
   10          0.319571788800         0.009328618513
   11          0.123425398100        -0.004466780454
   12          0.040936378200         0.001201168367
 P 23
    1        216.815189280000        -0.000218011808
    2         10.592298115000        -0.291324863942
    3          7.459658543000         0.607941693636
    4        216.815189280000         0.000105692086
    5         10.592298115000         0.141234243249
    6          7.459658543000        -0.294730027084
    7        216.815189280000        -0.000086133173
    8         10.592298115000        -0.115098054126
    9          7.459658543000         0.240188581959
   10          8.948415647100         0.152649479836
   11          5.969459246400        -0.275021486141
   12          2.109908820900        -0.647399479609
   13          1.023637037300        -0.386962725806
   14          8.948415647100        -0.074004441211
   15          5.969459246400         0.133330368533
   16          2.109908820900         0.313859154845
   17          1.023637037300         0.187599462007
   18          8.948415647100         0.060309504156
   19          5.969459246400        -0.108656835772
   20          2.109908820900        -0.255777757301
   21          1.023637037300        -0.152883129016
   22          0.421863565600         0.129565946717
   23          0.421863565600        -0.062813548380
 S 12
    1       3635.980935600000        -0.000075096983
    2        537.641298230000        -0.000453700853
    3         91.600030756000        -0.001540652378
    4         20.200005804000         0.327187623258
    5         16.893873824000        -0.468435515770
    6         18.177216938000        -0.123716254773
    7          7.231785208200         0.916438129435
    8          1.949619973900        -2.180063985262
    9          0.992266952400         0.976006367077
   10          0.319571788800         1.142557283331
   11          0.123425398100        -0.230407689166
   12          0.040936378200         0.054986694727
 P 23
    1        216.815189280000        -0.000129257569
    2         10.592298115000        -0.172724331548
    3          7.459658543000         0.360444080305
    4        216.815189280000         0.000063509303
    5         10.592298115000         0.084866224279
    6          7.459658543000        -0.177100283932
    7        216.815189280000        -0.000030139365
    8         10.592298115000        -0.040274636341
    9          7.459658543000         0.084045797865
   10          8.948415647100         0.119338133084
   11          5.969459246400        -0.215005978070
   12          2.109908820900        -0.506123213383
   13          1.023637037300        -0.302519270424
   14          8.948415647100        -0.058635495512
   15          5.969459246400         0.105640852059
   16          2.109908820900         0.248678143691
   17          1.023637037300         0.148639557741
   18          8.948415647100         0.027826420682
   19          5.969459246400        -0.050133571225
   20          2.109908820900        -0.118014226370
   21          1.023637037300        -0.070539300939
   22          0.421863565600         1.328130363758
   23          0.421863565600        -0.652562428882
 S 12
    1       3635.980935600000         0.000103386789
    2        537.641298230000         0.000624614633
    3         91.600030756000         0.002121031985
    4         20.200005804000        -0.450442568304
    5         16.893873824000         0.644899995628
    6         18.177216938000         0.186165927808
    7          7.231785208200        -1.379039116226
    8          1.949619973900         5.407917859940
    9          0.992266952400        -7.206485368176
   10          0.319571788800         5.356111545195
   11          0.123425398100        -3.361907105863
   12          0.040936378200         0.990638814939
 P 23
    1        216.815189280000        -0.000845097978
    2         10.592298115000        -1.129287701646
    3          7.459658543000         2.356616831980
    4        216.815189280000         0.000416397189
    5         10.592298115000         0.556423321853
    6          7.459658543000        -1.161153675963
    7        216.815189280000        -0.000168147506
    8         10.592298115000        -0.224692184471
    9          7.459658543000         0.468891481920
   10          8.948415647100         0.131005666462
   11          5.969459246400        -0.236026831680
   12          2.109908820900        -0.555606218799
   13          1.023637037300        -0.332096184308
   14          8.948415647100        -0.064549191502
   15          5.969459246400         0.116295283778
   16          2.109908820900         0.273758633390
   17          1.023637037300         0.163630633521
   18          8.948415647100         0.026065943455
   19          5.969459246400        -0.046961801077
   20          2.109908820900        -0.110547892114
   21          1.023637037300        -0.066076533905
   22          0.421863565600         0.703135804114
   23          0.421863565600        -0.346449500219
 P 23
    1        216.815189280000         0.000024639717
    2         10.592298115000         0.032925566541
    3          7.459658543000        -0.068709633693
    4        216.815189280000        -0.000018151121
    5         10.592298115000        -0.024254984118
    6          7.459658543000         0.050615714445
    7        216.815189280000        -0.000143919259
    8         10.592298115000        -0.192316457637
    9          7.459658543000         0.401329263103
   10          8.948415647100        -0.022748825290
   11          5.969459246400         0.040985503167
   12          2.109908820900         0.096479710710
   13          1.023637037300         0.057667719881
   14          8.948415647100         0.016758174698
   15          5.969459246400        -0.030192425912
   16          2.109908820900        -0.071072849972
   17          1.023637037300        -0.042481566053
   18          8.948415647100         0.132874661085
   19          5.969459246400        -0.239394112586
   20          2.109908820900        -0.563532784599
   21          1.023637037300        -0.336834040308
   22          0.421863565600        -0.253174780157
   23          0.421863565600         0.186504012442
 P 23
    1        216.815189280000        -0.000042669025
    2         10.592298115000        -0.057017773103
    3          7.459658543000         0.118985661157
    4        216.815189280000         0.000019572685
    5         10.592298115000         0.026154591472
    6          7.459658543000        -0.054579847463
    7        216.815189280000        -0.000044421737
    8         10.592298115000        -0.059359887723
    9          7.459658543000         0.123873225884
   10          8.948415647100         0.042558485700
   11          5.969459246400        -0.076675649322
   12          2.109908820900        -0.180494172170
   13          1.023637037300        -0.107884728139
   14          8.948415647100        -0.019521979667
   15          5.969459246400         0.035171845106
   16          2.109908820900         0.082794382862
   17          1.023637037300         0.049487744558
   18          8.948415647100         0.044306657299
   19          5.969459246400        -0.079825248991
   20          2.109908820900        -0.187908317207
   21          1.023637037300        -0.112316300705
   22          0.421863565600         0.811045290222
   23          0.421863565600        -0.372034140879
 P 23
    1        216.815189280000        -0.000018010885
    2         10.592298115000        -0.024067589792
    3          7.459658543000         0.050224656770
    4        216.815189280000         0.000009026556
    5         10.592298115000         0.012062008621
    6          7.459658543000        -0.025171205267
    7        216.815189280000         0.000000185392
    8         10.592298115000         0.000247735145
    9          7.459658543000        -0.000516977924
   10          8.948415647100         0.018175289356
   11          5.969459246400        -0.032745575650
   12          2.109908820900        -0.077082954254
   13          1.023637037300        -0.046073917312
   14          8.948415647100        -0.009108951033
   15          5.969459246400         0.016411174496
   16          2.109908820900         0.038631839198
   17          1.023637037300         0.023090969749
   18          8.948415647100        -0.000187083874
   19          5.969459246400         0.000337060337
   20          2.109908820900         0.000793438686
   21          1.023637037300         0.000474253079
   22          0.421863565600         0.351718651694
   23          0.421863565600        -0.176271635236
 P 23
    1        216.815189280000         0.000010007222
    2         10.592298115000         0.013372453270
    3          7.459658543000        -0.027905863506
    4        216.815189280000        -0.000007922520
    5         10.592298115000        -0.010586706875
    6          7.459658543000         0.022092520427
    7        216.815189280000        -0.000072084103
    8         10.592298115000        -0.096324559732
    9          7.459658543000         0.201011733740
   10          8.948415647100        -0.010219263606
   11          5.969459246400         0.018411573148
   12          2.109908820900         0.043340769633
   13          1.023637037300         0.025905585167
   14          8.948415647100         0.008090388958
   15          5.969459246400        -0.014576078457
   16          2.109908820900        -0.034312030454
   17          1.023637037300        -0.020508939613
   18          8.948415647100         0.073611479340
   19          5.969459246400        -0.132622387360
   20          2.109908820900        -0.312192569991
   21          1.023637037300        -0.186603313202
   22          0.421863565600        -0.265599422778
   23          0.421863565600         0.210269812006
 P 23
    1        216.815189280000        -0.000428231022
    2         10.592298115000        -0.572236639620
    3          7.459658543000         1.194153177121
    4        216.815189280000        -0.000855168101
    5         10.592298115000        -1.142744207380
    6          7.459658543000         2.384698097603
    7        216.815189280000         0.000034538592
    8         10.592298115000         0.046153237057
    9          7.459658543000        -0.096313362077
   10          8.948415647100         0.066389624462
   11          5.969459246400        -0.119611106461
   12          2.109908820900        -0.281564066738
   13          1.023637037300        -0.168296086398
   14          8.948415647100         0.132578645846
   15          5.969459246400        -0.238860795662
   16          2.109908820900        -0.562277358691
   17          1.023637037300        -0.336083648862
   18          8.948415647100        -0.005354596095
   19          5.969459246400         0.009647127375
   20          2.109908820900         0.022709299299
   21          1.023637037300         0.013573771117
   22          0.421863565600         0.356367198833
   23          0.421863565600         0.711657597524
 end
  // -----------------------------------------------
  // The basis set
  // -----------------------------------------------
  BAS[ATNO] = new BFNGauss[NSH];
  // Basis function   1 L = s
  InitBFNGauss(BAS[ATNO][  0]);
  BAS[ATNO][  0].l  = 0;
  BAS[ATNO][  0].ng = 12;
  BAS[ATNO][  0].a[  0] =      3635.980935600000;     BAS[ATNO][  0].d[  0] =         0.000116650636;
  BAS[ATNO][  0].a[  1] =       537.641298230000;     BAS[ATNO][  0].d[  1] =         0.000704748599;
  BAS[ATNO][  0].a[  2] =        91.600030756000;     BAS[ATNO][  0].d[  2] =         0.002393146493;
  BAS[ATNO][  0].a[  3] =        20.200005804000;     BAS[ATNO][  0].d[  3] =        -0.508231398938;
  BAS[ATNO][  0].a[  4] =        16.893873824000;     BAS[ATNO][  0].d[  4] =         0.727636440284;
  BAS[ATNO][  0].a[  5] =        18.177216938000;     BAS[ATNO][  0].d[  5] =         0.149472707713;
  BAS[ATNO][  0].a[  6] =         7.231785208200;     BAS[ATNO][  0].d[  6] =        -1.107231130701;
  BAS[ATNO][  0].a[  7] =         1.949619973900;     BAS[ATNO][  0].d[  7] =         1.302042488698;
  BAS[ATNO][  0].a[  8] =         0.992266952400;     BAS[ATNO][  0].d[  8] =         0.187316495473;
  BAS[ATNO][  0].a[  9] =         0.319571788800;     BAS[ATNO][  0].d[  9] =         0.009328618513;
  BAS[ATNO][  0].a[ 10] =         0.123425398100;     BAS[ATNO][  0].d[ 10] =        -0.004466780454;
  BAS[ATNO][  0].a[ 11] =         0.040936378200;     BAS[ATNO][  0].d[ 11] =         0.001201168367;

FINAL SINGLE POINT ENERGY      -231.386128052494

DIPOLE MOMENT
-------------
                                X             Y             Z
Electronic contribution:     -0.00000       0.00000       0.00000
Nuclear contribution   :      0.00000       0.00000       0.00000
                        -----------------------------------------
Total Dipole Moment    :     -0.00000       0.00000       0.00000
                        -----------------------------------------
Magnitude (a.u.)       :      0.00000
Magnitude (Debye)      :      0.00000

Rotational constants in cm-1:     0.000000     0.000000     0.000000
Rotational constants in MHz :     0.000000     0.000000     0.000000

                             ****ORCA TERMINATED NORMALLY****
TOTAL RUN TIME: 0 days 0 hours 0 minutes 1 seconds 433 msec
