                         Program Version 4.2.0 -  RELEASE  -
|  1> #
|  2> # 85_At CCSD(T)/Def2-TZVPPD
|  3> #
|  4> ! CCSD(T) Def2-TZVPPD tightscf slowconv
|  5>
|  6> *xyz 0 2
|  7>  At 0.0 0.0 0.0
|  8> *
|  9>
| 10> %maxcore 5000
| 11>
| 12> %pal
| 13> nprocs 24
| 14> end
| 15>
| 16>
| 17>                          ****END OF INPUT****

CARTESIAN COORDINATES (ANGSTROEM)
---------------------------------
  At     0.000000    0.000000    0.000000

 Total Charge           Charge          ....    0
 Multiplicity           Mult            ....    2
 Number of Electrons    NEL             ....   25
 Basis Dimension        Dim             ....   59

ORBITAL ENERGIES
----------------
                 SPIN UP ORBITALS
  NO   OCC          E(Eh)            E(eV)
   0   1.0000      -7.815148      -212.6610
   1   1.0000      -5.118336      -139.2770
   2   1.0000      -5.097307      -138.7048
   3   1.0000      -5.097307      -138.7048
   4   1.0000      -1.839347       -50.0512
   5   1.0000      -1.832633       -49.8685
   6   1.0000      -1.832633       -49.8685
   7   1.0000      -1.813489       -49.3475
   8   1.0000      -1.813489       -49.3475
   9   1.0000      -0.978509       -26.6266
  10   1.0000      -0.432247       -11.7620
  11   1.0000      -0.377340       -10.2680
  12   1.0000      -0.377340       -10.2680
  13   0.0000       0.051294         1.3958
  14   0.0000       0.056244         1.5305
  15   0.0000       0.056244         1.5305
  16   0.0000       0.077586         2.1112
  17   0.0000       0.151404         4.1199

                 SPIN DOWN ORBITALS
  NO   OCC          E(Eh)            E(eV)
   0   1.0000      -7.807991      -212.4662
   1   1.0000      -5.101938      -138.8308
   2   1.0000      -5.096871      -138.6929
   3   1.0000      -5.096871      -138.6929
   4   1.0000      -1.826167       -49.6925
   5   1.0000      -1.822664       -49.5972
   6   1.0000      -1.822664       -49.5972
   7   1.0000      -1.813116       -49.3374
   8   1.0000      -1.813116       -49.3374
   9   1.0000      -0.897575       -24.4243
  10   1.0000      -0.358752        -9.7621
  11   1.0000      -0.358752        -9.7621
  12   0.0000      -0.048951        -1.3320
  13   0.0000       0.056617         1.5406
  14   0.0000       0.056617         1.5406
  15   0.0000       0.059539         1.6202
  16   0.0000       0.083965         2.2848

E(0)                                       ...   -261.360405934
E(0)                                       ...   -261.360405934
E(CORR)                                    ...     -0.458323846
E(TOT)                                     ...   -261.818729780
E(CCSD(T))                                 ...   -261.826246428

MULLIKEN ATOMIC CHARGES AND SPIN DENSITIES
------------------------------------------
   0 At:    0.000000    1.000000
Sum of atomic charges       :    0.0000000

LOEWDIN ATOMIC CHARGES AND SPIN DENSITIES
-----------------------------------------
   0 At:   -0.000000    1.000000

FINAL SINGLE POINT ENERGY      -261.826246428099

DIPOLE MOMENT
-------------
                                X             Y             Z
Electronic contribution:      0.00000      -0.00000       0.00000
Nuclear contribution   :      0.00000       0.00000       0.00000
                        -----------------------------------------
Total Dipole Moment    :      0.00000      -0.00000       0.00000
                        -----------------------------------------
Magnitude (a.u.)       :      0.00000
Magnitude (Debye)      :      0.00000

Rotational constants in cm-1:     0.000000     0.000000     0.000000
Rotational constants in MHz :     0.000000     0.000000     0.000000

                             ****ORCA TERMINATED NORMALLY****
TOTAL RUN TIME: 0 days 0 hours 0 minutes 18 seconds 263 msec
