                         Program Version 4.2.0 -  RELEASE  -
|  1> #
|  2> # 85_At CCSD(T)/Def2-TZVPPD
|  3> #
|  4> ! CCSD(T) Def2-TZVPPD tightscf slowconv
|  5>
|  6> *xyz 0 1
|  7>  Rn 0.0 0.0 0.0
|  8> *
|  9>
| 10> %maxcore 5000
| 11>
| 12> %pal
| 13> nprocs 24
| 14> end
| 15>
| 16>
| 17>                          ****END OF INPUT****

CARTESIAN COORDINATES (ANGSTROEM)
---------------------------------
  Rn     0.000000    0.000000    0.000000

 Total Charge           Charge          ....    0
 Multiplicity           Mult            ....    1
 Number of Electrons    NEL             ....   26
 Basis Dimension        Dim             ....   59

ORBITAL ENERGIES
----------------

  NO   OCC          E(Eh)            E(eV)
   0   2.0000      -8.326457      -226.5744
   1   2.0000      -5.537452      -150.6817
   2   2.0000      -5.537452      -150.6817
   3   2.0000      -5.537452      -150.6817
   4   2.0000      -2.087677       -56.8086
   5   2.0000      -2.087677       -56.8086
   6   2.0000      -2.087677       -56.8086
   7   2.0000      -2.087677       -56.8086
   8   2.0000      -2.087677       -56.8086
   9   2.0000      -1.070726       -29.1359
  10   2.0000      -0.427546       -11.6341
  11   2.0000      -0.427546       -11.6341
  12   2.0000      -0.427546       -11.6341
  13   0.0000       0.060002         1.6327
  14   0.0000       0.060002         1.6327
  15   0.0000       0.060002         1.6327
  16   0.0000       0.090788         2.4705
  17   0.0000       0.180057         4.8996

E(0)                                       ...   -287.543011998
E(0)                                       ...   -287.543011998
E(CORR)                                    ...     -0.497606677
E(TOT)                                     ...   -288.040618675
E(CCSD(T))                                 ...   -288.049236784

MULLIKEN ATOMIC CHARGES
-----------------------
   0 Rn:   -0.000000
Sum of atomic charges:   -0.0000000

LOEWDIN ATOMIC CHARGES
----------------------
   0 Rn:   -0.000000

FINAL SINGLE POINT ENERGY      -288.049236783665

DIPOLE MOMENT
-------------
                                X             Y             Z
Electronic contribution:      0.00000      -0.00000      -0.00000
Nuclear contribution   :      0.00000       0.00000       0.00000
                        -----------------------------------------
Total Dipole Moment    :      0.00000      -0.00000      -0.00000
                        -----------------------------------------
Magnitude (a.u.)       :      0.00000
Magnitude (Debye)      :      0.00000

Rotational constants in cm-1:     0.000000     0.000000     0.000000
Rotational constants in MHz :     0.000000     0.000000     0.000000

                             ****ORCA TERMINATED NORMALLY****
TOTAL RUN TIME: 0 days 0 hours 0 minutes 11 seconds 285 msec
