                         Program Version 4.2.0 -  RELEASE  -
|  1> # input to generate an atomic fitting density for Rn
|  2> # this file is use internally by ORCA
|  3> #
|  4> # atomic ground state (S=1): 1s2 2s2 2p6 3s2 3p6 4s2 3d10 4p6 5s2 4d10 5p6 6s2 4f14 5d10 6p6
|  5> #
|  6> ! RHF AllowRHF def2-SVP def2/J  NoMulliken NoLoewdin NoMayer NoPrintMOs
|  7>
|  8> %output print[p_atomdensfit] 2 end
|  9>
| 10> %scf
| 11>   guess hcore
| 12>   maxiter 1000
| 13>   maxdisk 500000
| 14>   SCFMode Conventional
| 15>   lshift 1.000000
| 16>   hftyp rohf
| 17>   rohf_case sahf
| 18>   rohf_numop   2
| 19>   rohf_norb[1] 3
| 20>   rohf_nel[1]  6
| 21> end
| 22>
| 23> %basis
| 24>   NewECP 86
| 25>     N_core 60
| 26>     lmax f
| 27>     s 7
| 28>       1      30.1512420000     49.9655510000  2
| 29>       2      14.5212410000    283.0700000000  2
| 30>       3       8.0520380000     62.0028700000  2
| 31>       4       6.3485710000    -21.7972900000  2
| 32>       5       6.2959490000    -28.9468050000  2
| 33>       6       2.8821180000     -1.4473650000  2
| 34>       7       2.9080480000     -2.1779640000  2
| 35>     p 8
| 36>       1      11.0099420000     71.9691190000  2
| 37>       2       9.6176250000    143.8605590000  2
| 38>       3       7.3360080000      4.7147610000  2
| 39>       4       6.4062530000      9.0130650000  2
| 40>       5       6.3485710000    -21.7972900000  2
| 41>       6       6.2959490000    -28.9468050000  2
| 42>       7       2.8821180000     -1.4473650000  2
| 43>       8       2.9080480000     -2.1779640000  2
| 44>     d 8
| 45>       1       8.3692200000     36.3683650000  2
| 46>       2       8.1169750000     54.5517610000  2
| 47>       3       5.3536560000      9.6344870000  2
| 48>       4       5.0972120000     14.3879020000  2
| 49>       5       6.3485710000    -21.7972900000  2
| 50>       6       6.2959490000    -28.9468050000  2
| 51>       7       2.8821180000     -1.4473650000  2
| 52>       8       2.9080480000     -2.1779640000  2
| 53>     f 4
| 54>       1       6.3485710000     21.7972900000  2
| 55>       2       6.2959490000     28.9468050000  2
| 56>       3       2.8821180000      1.4473650000  2
| 57>       4       2.9080480000      2.1779640000  2
| 58>   end
| 59>   NewGTO 86
| 60>     s 5
| 61>      1    5187.7442468000      0.0006597856
| 62>      2     768.1449120700      0.0043071109
| 63>      3     159.3518206500      0.0112206544
| 64>      4      21.8634327240     -2.2562235295
| 65>      5      18.3886899780      3.2102392906
| 66>     s 2
| 67>      1      24.8162264480     -0.0801828033
| 68>      2       7.2923301677      1.0601788376
| 69>     s 1
| 70>      1       2.0850437166      1.0000000000
| 71>     s 1
| 72>      1       1.0915245945      1.0000000000
| 73>     s 1
| 74>      1       0.3491570843      1.0000000000
| 75>     s 1
| 76>      1       0.1364842295      1.0000000000
| 77>     p 3
| 78>      1     194.6891872300      0.0009489126
| 79>      2      11.2100135250      0.7208226436
| 80>      3       7.5298316489     -1.6616559490
| 81>     p 4
| 82>      1       9.0845000304     -0.1595946907
| 83>      2       6.2631489717      0.2746830724
| 84>      3       2.2545193734      0.5737709752
| 85>      4       1.1180666918      0.3556720969
| 86>     p 1
| 87>      1       0.4744449259      1.0000000000
| 88>     p 1
| 89>      1       0.2017235462      1.0000000000
| 90>     p 1
| 91>      1       0.0795031444      1.0000000000
| 92>     s 1
| 93>      1       0.0468375817      1.0000000000
| 94>     p 1
| 95>      1       0.0222645193      1.0000000000
| 96>   end
| 97>   NewAuxGTO 86
| 98>     S 1
| 99>      1 1310.72 1.0
|100>     S 1
|101>      1  655.36 1.0
|102>     S 1
|103>      1  327.68 1.0
|104>     S 1
|105>      1  163.84 1.0
|106>     S 1
|107>      1   81.82 1.0
|108>     S 1
|109>      1   40.96 1.0
|110>     S 1
|111>      1   20.48 1.0
|112>     S 1
|113>      1   10.24 1.0
|114>     S 1
|115>      1    5.12 1.0
|116>     S 1
|117>      1    2.56 1.0
|118>     S 1
|119>      1    1.28 1.0
|120>     S 1
|121>      1    0.64 1.0
|122>     S 1
|123>      1    0.32 1.0
|124>     S 1
|125>      1    0.16 1.0
|126>     S 1
|127>      1    0.08 1.0
|128>     S 1
|129>      1    0.04 1.0
|130>     S 1
|131>      1    0.02 1.0
|132>     S 1
|133>      1    0.01 1.0
|134>   end
|135> end
|136>
|137> * xyz 0 1
|138> 86  0.0 0.0 0.0
|139> *
|140>
|141>
|142>                          ****END OF INPUT****

CARTESIAN COORDINATES (ANGSTROEM)
---------------------------------
  Rn     0.000000    0.000000    0.000000

 Total Charge           Charge          ....    0
 Multiplicity           Mult            ....    1
 Number of Electrons    NEL             ....   26
 Basis Dimension        Dim             ....   25

ORBITAL ENERGIES
----------------

  NO   OCC          E(Eh)            E(eV)
   0   2.0000     -12.752423      -347.0111
   1   2.0000      -9.568167      -260.3631
   2   2.0000      -9.566776      -260.3252
   3   2.0000      -9.566776      -260.3252
   4   2.0000      -3.676122      -100.0324
   5   2.0000      -2.422555       -65.9211
   6   2.0000      -2.286415       -62.2165
   7   2.0000      -2.286415       -62.2165
   8   2.0000      -0.610491       -16.6123
   9   2.0000      -0.417738       -11.3672
  10   2.0000      -0.555268       -15.1096
  11   2.0000      -0.555268       -15.1096
  12   2.0000      -0.287653        -7.8274
  13   0.0000       0.053771         1.4632
  14   0.0000       0.053779         1.4634
  15   0.0000       0.053779         1.4634
  16   0.0000       0.424549        11.5526
  17   0.0000       0.424558        11.5528

CleanUpVectors: The p-vectors have cracked symmetry
CleanUpVectors: The p-vectors have cracked symmetry
CleanUpVectors: The p-vectors have cracked symmetry
CleanUpVectors: The p-vectors have cracked symmetry
CleanUpVectors: The p-vectors have cracked symmetry
CleanUpVectors: The p-vectors have cracked symmetry
CleanUpVectors: The p-vectors have cracked symmetry
CleanUpVectors: The p-vectors have cracked symmetry
CleanUpVectors: The p-vectors have cracked symmetry
CleanUpVectors: The p-vectors have cracked symmetry
CleanUpVectors: The p-vectors have cracked symmetry
CleanUpVectors: The p-vectors have cracked symmetry
CleanUpVectors: The p-vectors have cracked symmetry
CleanUpVectors: The p-vectors have cracked symmetry
CleanUpVectors: The p-vectors have cracked symmetry
--------------------------
ATOM BASIS FOR ELEMENT Rn
--------------------------
 NewGTO Rn
 S 12
    1       5187.744246800000         0.000156574324
    2        768.144912070000         0.001022124424
    3        159.351820650000         0.002662783750
    4         21.863432724000        -0.535426467711
    5         18.388689978000         0.761824819837
    6         24.816226448000         0.079537788651
    7          7.292330167700        -1.051650439332
    8          2.085043716600         1.277008491467
    9          1.091524594500         0.224997394956
   10          0.349157084300         0.014844274492
   11          0.136484229500        -0.015746232813
   12          0.046837581700         0.007234066089
 P 23
    1        194.689187230000         0.000000004034
    2         11.210013525000         0.000003064429
    3          7.529831648900        -0.000007064188
    4        194.689187230000         0.000000000674
    5         11.210013525000         0.000000511998
    6          7.529831648900        -0.000001180269
    7        194.689187230000        -0.000391793598
    8         11.210013525000        -0.297618238924
    9          7.529831648900         0.686076001676
   10          9.084500030400        -0.000002168425
   11          6.263148971700         0.000003732139
   12          2.254519373400         0.000007795869
   13          1.118066691800         0.000004832543
   14          9.084500030400        -0.000000362296
   15          6.263148971700         0.000000623558
   16          2.254519373400         0.000001302516
   17          1.118066691800         0.000000807411
   18          9.084500030400         0.210598050150
   19          6.263148971700        -0.362466440475
   20          2.254519373400        -0.757137020536
   21          1.118066691800        -0.469337982181
   22          0.474444925900        -0.000001532204
   23          0.474444925900        -0.000000255997
 S 12
    1       5187.744246800000         0.000107008375
    2        768.144912070000         0.000698555621
    3        159.351820650000         0.001819839652
    4         21.863432724000        -0.365929195923
    5         18.388689978000         0.520657757076
    6         24.816226448000         0.067925145093
    7          7.292330167700        -0.898107803733
    8          2.085043716600         2.228135501202
    9          1.091524594500        -0.968352746199
   10          0.349157084300        -1.120019934918
   11          0.136484229500         0.143876271386
   12          0.046837581700        -0.009344369177
 P 23
    1        194.689187230000         0.000000002420
    2         11.210013525000         0.000001838578
    3          7.529831648900        -0.000004238330
    4        194.689187230000         0.000000000404
    5         11.210013525000         0.000000307185
    6          7.529831648900        -0.000000708130
    7        194.689187230000        -0.000235066067
    8         11.210013525000        -0.178563277680
    9          7.529831648900         0.411627929927
   10          9.084500030400        -0.000001726807
   11          6.263148971700         0.000002972059
   12          2.254519373400         0.000006208176
   13          1.118066691800         0.000003848356
   14          9.084500030400        -0.000000288511
   15          6.263148971700         0.000000496564
   16          2.254519373400         0.000001037247
   17          1.118066691800         0.000000642974
   18          9.084500030400         0.167708064012
   19          6.263148971700        -0.288647235613
   20          2.254519373400        -0.602939978862
   21          1.118066691800        -0.373753528595
   22          0.474444925900        -0.000015735241
   23          0.474444925900        -0.000002629006
 S 12
    1       5187.744246800000         0.000155323692
    2        768.144912070000         0.001013960243
    3        159.351820650000         0.002641514865
    4         21.863432724000        -0.531149768900
    5         18.388689978000         0.755739772687
    6         24.816226448000         0.106302925833
    7          7.292330167700        -1.405539688126
    8          2.085043716600         5.848469749584
    9          1.091524594500        -7.618831576276
   10          0.349157084300         5.512857407379
   11          0.136484229500        -3.528300458321
   12          0.046837581700         1.058043059309
 S 12
    1       5187.744246800000         0.001746148662
    2        768.144912070000         0.011398939194
    3        159.351820650000         0.029695905259
    4         21.863432724000        -5.971184726471
    5         18.388689978000         8.496025136568
    6         24.816226448000         0.403846430452
    7          7.292330167700        -5.339666631559
    8          2.085043716600         4.880754883455
    9          1.091524594500        -3.757910573756
   10          0.349157084300         1.446961312184
   11          0.136484229500        -0.703512836106
   12          0.046837581700         0.187745628388
 S 12
    1       5187.744246800000         0.001669231802
    2        768.144912070000         0.010896822375
    3        159.351820650000         0.028387817441
    4         21.863432724000        -5.708157419241
    5         18.388689978000         8.121780038451
    6         24.816226448000         0.189175499371
    7          7.292330167700        -2.501282728602
    8          2.085043716600         1.526463742293
    9          1.091524594500        -1.085412140290
   10          0.349157084300         0.397254903262
   11          0.136484229500        -0.191492306470
   12          0.046837581700         0.051074339813
 P 23
    1        194.689187230000        -0.000028381568
    2         11.210013525000        -0.021559495628
    3          7.529831648900         0.049699415642
    4        194.689187230000        -0.000253327648
    5         11.210013525000        -0.192435325538
    6          7.529831648900         0.443606074694
    7        194.689187230000        -0.000000000728
    8         11.210013525000        -0.000000553037
    9          7.529831648900         0.000001274873
   10          9.084500030400         0.020432048283
   11          6.263148971700        -0.035166193645
   12          2.254519373400        -0.073456806222
   13          1.118066691800        -0.045534782047
   14          9.084500030400         0.182371978018
   15          6.263148971700        -0.313885725283
   16          2.254519373400        -0.655659328125
   17          1.118066691800        -0.406433469391
   18          9.084500030400         0.000000524116
   19          6.263148971700        -0.000000902072
   20          2.254519373400        -0.000001884290
   21          1.118066691800        -0.000001168043
   22          0.474444925900         0.201614312976
   23          0.474444925900         1.799565102061
 P 23
    1        194.689187230000        -0.000035775036
    2         11.210013525000        -0.027175796828
    3          7.529831648900         0.062646234644
    4        194.689187230000         0.000005710900
    5         11.210013525000         0.004338171927
    6          7.529831648900        -0.010000447758
    7        194.689187230000        -0.000000000359
    8         11.210013525000        -0.000000272353
    9          7.529831648900         0.000000627834
   10          9.084500030400         0.032613414170
   11          6.263148971700        -0.056131897410
   12          2.254519373400        -0.117250958479
   13          1.118066691800        -0.072682125915
   14          9.084500030400        -0.005206198688
   15          6.263148971700         0.008960540259
   16          2.254519373400         0.018717199708
   17          1.118066691800         0.011602513818
   18          9.084500030400         0.000000326848
   19          6.263148971700        -0.000000562548
   20          2.254519373400        -0.000001175076
   21          1.118066691800        -0.000000728412
   22          0.474444925900         0.831779265581
   23          0.474444925900        -0.132779968958
 P 23
    1        194.689187230000        -0.000029769762
    2         11.210013525000        -0.022614009141
    3          7.529831648900         0.052130302999
    4        194.689187230000        -0.000015463996
    5         11.210013525000        -0.011746917818
    6          7.529831648900         0.027079249033
    7        194.689187230000        -0.000000000333
    8         11.210013525000        -0.000000253050
    9          7.529831648900         0.000000583336
   10          9.084500030400         0.023384116453
   11          6.263148971700        -0.040247084188
   12          2.254519373400        -0.084070010364
   13          1.118066691800        -0.052113749501
   14          9.084500030400         0.012146952471
   15          6.263148971700        -0.020906473833
   16          2.254519373400        -0.043670429978
   17          1.118066691800        -0.027070650267
   18          9.084500030400         0.000000261667
   19          6.263148971700        -0.000000450363
   20          2.254519373400        -0.000000940740
   21          1.118066691800        -0.000000583151
   22          0.474444925900         0.376951968966
   23          0.474444925900         0.195808879937
 P 23
    1        194.689187230000         0.000031173721
    2         11.210013525000         0.023680499245
    3          7.529831648900        -0.054588799055
    4        194.689187230000        -0.000116106679
    5         11.210013525000        -0.088198136527
    6          7.529831648900         0.203316251997
    7        194.689187230000         0.000000000121
    8         11.210013525000         0.000000092094
    9          7.529831648900        -0.000000212297
   10          9.084500030400        -0.024760874900
   11          6.263148971700         0.042616663268
   12          2.254519373400         0.089019699063
   13          1.118066691800         0.055181987935
   14          9.084500030400         0.092222000997
   15          6.263148971700        -0.158725973060
   16          2.254519373400        -0.331554309323
   17          1.118066691800        -0.205525586916
   18          9.084500030400        -0.000000096295
   19          6.263148971700         0.000000165737
   20          2.254519373400         0.000000346199
   21          1.118066691800         0.000000214604
   22          0.474444925900        -0.528445736623
   23          0.474444925900         1.968198758981
 P 11
    1        194.689187230000        -0.001459647794
    2         11.210013525000        -1.108792507847
    3          7.529831648900         2.556012471625
    4          9.084500030400         0.189654763088
    5          6.263148971700        -0.326420338870
    6          2.254519373400        -0.681842221009
    7          1.118066691800        -0.422663855411
    8          0.474444925900         0.893267513366
    9          0.201723546200        -0.640364146311
   10          0.079503144400         0.268170700459
   11          0.022264519300        -0.064087015465
 end
  // -----------------------------------------------
  // The basis set
  // -----------------------------------------------
  BAS[ATNO] = new BFNGauss[NSH];
  // Basis function   1 L = s
  InitBFNGauss(BAS[ATNO][  0]);
  BAS[ATNO][  0].l  = 0;
  BAS[ATNO][  0].ng = 12;
  BAS[ATNO][  0].a[  0] =      5187.744246800000;     BAS[ATNO][  0].d[  0] =         0.000156574324;
  BAS[ATNO][  0].a[  1] =       768.144912070000;     BAS[ATNO][  0].d[  1] =         0.001022124424;
  BAS[ATNO][  0].a[  2] =       159.351820650000;     BAS[ATNO][  0].d[  2] =         0.002662783750;
  BAS[ATNO][  0].a[  3] =        21.863432724000;     BAS[ATNO][  0].d[  3] =        -0.535426467711;
  BAS[ATNO][  0].a[  4] =        18.388689978000;     BAS[ATNO][  0].d[  4] =         0.761824819837;
  BAS[ATNO][  0].a[  5] =        24.816226448000;     BAS[ATNO][  0].d[  5] =         0.079537788651;
  BAS[ATNO][  0].a[  6] =         7.292330167700;     BAS[ATNO][  0].d[  6] =        -1.051650439332;
  BAS[ATNO][  0].a[  7] =         2.085043716600;     BAS[ATNO][  0].d[  7] =         1.277008491467;
  BAS[ATNO][  0].a[  8] =         1.091524594500;     BAS[ATNO][  0].d[  8] =         0.224997394956;
  BAS[ATNO][  0].a[  9] =         0.349157084300;     BAS[ATNO][  0].d[  9] =         0.014844274492;
  BAS[ATNO][  0].a[ 10] =         0.136484229500;     BAS[ATNO][  0].d[ 10] =        -0.015746232813;
  BAS[ATNO][  0].a[ 11] =         0.046837581700;     BAS[ATNO][  0].d[ 11] =         0.007234066089;

FINAL SINGLE POINT ENERGY      -252.852984202431

DIPOLE MOMENT
-------------
                                X             Y             Z
Electronic contribution:     -0.00000       0.00000      -0.00000
Nuclear contribution   :      0.00000       0.00000       0.00000
                        -----------------------------------------
Total Dipole Moment    :     -0.00000       0.00000      -0.00000
                        -----------------------------------------
Magnitude (a.u.)       :      0.00000
Magnitude (Debye)      :      0.00000

Rotational constants in cm-1:     0.000000     0.000000     0.000000
Rotational constants in MHz :     0.000000     0.000000     0.000000

                             ****ORCA TERMINATED NORMALLY****
TOTAL RUN TIME: 0 days 0 hours 0 minutes 1 seconds 38 msec
