                         Program Version 4.2.0 -  RELEASE  -
|  1> #
|  2> # 03_Li CCSD(T)/aug-cc-pv5(+d)z
|  3> #
|  4> ! HF aug-cc-pv5(+d)z tightscf
|  5>
|  6> *xyz 0 2
|  7>  Li 0.0 0.0 0.0
|  8> *
|  9>
| 10> %method
| 11> NewNCore Li 2 end
| 12> end
| 13>
| 14>
| 15>                          ****END OF INPUT****

CARTESIAN COORDINATES (ANGSTROEM)
---------------------------------
  Li     0.000000    0.000000    0.000000

 Total Charge           Charge          ....    0
 Multiplicity           Mult            ....    2
 Number of Electrons    NEL             ....    3
 Basis Dimension        Dim             ....  127

ORBITAL ENERGIES
----------------
                 SPIN UP ORBITALS
  NO   OCC          E(Eh)            E(eV)
   0   1.0000      -2.486636       -67.6648
   1   1.0000      -0.196366        -5.3434
   2   0.0000       0.010015         0.2725
   3   0.0000       0.010015         0.2725
   4   0.0000       0.010015         0.2725
   5   0.0000       0.013510         0.3676
   6   0.0000       0.028876         0.7857

                 SPIN DOWN ORBITALS
  NO   OCC          E(Eh)            E(eV)
   0   1.0000      -2.468744       -67.1779
   1   0.0000       0.004466         0.1215
   2   0.0000       0.012989         0.3534
   3   0.0000       0.012989         0.3534
   4   0.0000       0.012989         0.3534
   5   0.0000       0.029878         0.8130

MULLIKEN ATOMIC CHARGES AND SPIN POPULATIONS
--------------------------------------------
   0 Li:   -0.000000    1.000000
Sum of atomic charges         :   -0.0000000

LOEWDIN ATOMIC CHARGES AND SPIN POPULATIONS
-------------------------------------------
   0 Li:   -0.000000    1.000000

FINAL SINGLE POINT ENERGY        -7.432745865866

DIPOLE MOMENT
-------------
                                X             Y             Z
Electronic contribution:     -0.00000      -0.00000      -0.00000
Nuclear contribution   :      0.00000       0.00000       0.00000
                        -----------------------------------------
Total Dipole Moment    :     -0.00000      -0.00000      -0.00000
                        -----------------------------------------
Magnitude (a.u.)       :      0.00000
Magnitude (Debye)      :      0.00000

Rotational constants in cm-1:     0.000000     0.000000     0.000000
Rotational constants in MHz :     0.000000     0.000000     0.000000

                             ****ORCA TERMINATED NORMALLY****
TOTAL RUN TIME: 0 days 0 hours 0 minutes 8 seconds 360 msec
