                         Program Version 4.2.0 -  RELEASE  -
|  1> #
|  2> # 05_B CCSD(T)/aug-cc-pv5(+d)z
|  3> #
|  4> ! CCSD(T) aug-cc-pv5(+d)z tightscf
|  5>
|  6> *xyz 0 2
|  7>  B 0.0 0.0 0.0
|  8> *
|  9>
| 10> %maxcore 5000
| 11>
| 12> %pal
| 13> nprocs 3
| 14> end
| 15>
| 16>
| 17>                          ****END OF INPUT****

CARTESIAN COORDINATES (ANGSTROEM)
---------------------------------
  B      0.000000    0.000000    0.000000

 Total Charge           Charge          ....    0
 Multiplicity           Mult            ....    2
 Number of Electrons    NEL             ....    5
 Basis Dimension        Dim             ....  127

ORBITAL ENERGIES
----------------
                 SPIN UP ORBITALS
  NO   OCC          E(Eh)            E(eV)
   0   1.0000      -7.701231      -209.5611
   1   1.0000      -0.545236       -14.8366
   2   1.0000      -0.318854        -8.6765
   3   0.0000       0.021669         0.5896
   4   0.0000       0.021669         0.5896
   5   0.0000       0.040248         1.0952
   6   0.0000       0.051599         1.4041
   7   0.0000       0.062851         1.7103

                 SPIN DOWN ORBITALS
  NO   OCC          E(Eh)            E(eV)
   0   1.0000      -7.686205      -209.1523
   1   1.0000      -0.446151       -12.1404
   2   0.0000       0.024645         0.6706
   3   0.0000       0.024645         0.6706
   4   0.0000       0.033626         0.9150
   5   0.0000       0.054759         1.4901
   6   0.0000       0.069419         1.8890

E(0)                                       ...    -24.533130354
E(0)                                       ...    -24.533130354
E(CORR)                                    ...     -0.066968861
E(TOT)                                     ...    -24.600099214
E(CCSD(T))                                 ...    -24.601603463

MULLIKEN ATOMIC CHARGES AND SPIN DENSITIES
------------------------------------------
   0 B :    0.000000    1.000000
Sum of atomic charges       :    0.0000000

LOEWDIN ATOMIC CHARGES AND SPIN DENSITIES
-----------------------------------------
   0 B :    0.000000    1.000000

FINAL SINGLE POINT ENERGY       -24.601603462999

DIPOLE MOMENT
-------------
                                X             Y             Z
Electronic contribution:      0.00000      -0.00000       0.00000
Nuclear contribution   :      0.00000       0.00000       0.00000
                        -----------------------------------------
Total Dipole Moment    :      0.00000      -0.00000       0.00000
                        -----------------------------------------
Magnitude (a.u.)       :      0.00000
Magnitude (Debye)      :      0.00000

Rotational constants in cm-1:     0.000000     0.000000     0.000000
Rotational constants in MHz :     0.000000     0.000000     0.000000

                             ****ORCA TERMINATED NORMALLY****
TOTAL RUN TIME: 0 days 0 hours 1 minutes 3 seconds 984 msec
