                         Program Version 4.2.0 -  RELEASE  -
|  1> #
|  2> # 06_C CCSD(T)/aug-cc-pv5(+d)z
|  3> #
|  4> ! CCSD(T) aug-cc-pv5(+d)z tightscf
|  5>
|  6> *xyz 0 3
|  7>  C 0.0 0.0 0.0
|  8> *
|  9>
| 10> %maxcore 5000
| 11>
| 12> %pal
| 13> nprocs 6
| 14> end
| 15>
| 16>
| 17>                          ****END OF INPUT****

CARTESIAN COORDINATES (ANGSTROEM)
---------------------------------
  C      0.000000    0.000000    0.000000

 Total Charge           Charge          ....    0
 Multiplicity           Mult            ....    3
 Number of Electrons    NEL             ....    6
 Basis Dimension        Dim             ....  127

ORBITAL ENERGIES
----------------
                 SPIN UP ORBITALS
  NO   OCC          E(Eh)            E(eV)
   0   1.0000     -11.345518      -308.7272
   1   1.0000      -0.829224       -22.5643
   2   1.0000      -0.439091       -11.9483
   3   1.0000      -0.439091       -11.9483
   4   0.0000       0.016232         0.4417
   5   0.0000       0.066116         1.7991
   6   0.0000       0.066116         1.7991
   7   0.0000       0.074282         2.0213
   8   0.0000       0.084657         2.3036

                 SPIN DOWN ORBITALS
  NO   OCC          E(Eh)            E(eV)
   0   1.0000     -11.300470      -307.5014
   1   1.0000      -0.583420       -15.8757
   2   0.0000       0.033201         0.9034
   3   0.0000       0.050657         1.3784
   4   0.0000       0.050657         1.3784
   5   0.0000       0.082093         2.2339
   6   0.0000       0.099782         2.7152

E(0)                                       ...    -37.693689951
E(0)                                       ...    -37.693689951
E(CORR)                                    ...     -0.092206058
E(TOT)                                     ...    -37.785896009
E(CCSD(T))                                 ...    -37.788379978

MULLIKEN ATOMIC CHARGES AND SPIN DENSITIES
------------------------------------------
   0 C :    0.000000    2.000000
Sum of atomic charges       :    0.0000000

LOEWDIN ATOMIC CHARGES AND SPIN DENSITIES
-----------------------------------------
   0 C :    0.000000    2.000000

FINAL SINGLE POINT ENERGY       -37.788379977677

DIPOLE MOMENT
-------------
                                X             Y             Z
Electronic contribution:     -0.00000       0.00000      -0.00000
Nuclear contribution   :      0.00000       0.00000       0.00000
                        -----------------------------------------
Total Dipole Moment    :     -0.00000       0.00000      -0.00000
                        -----------------------------------------
Magnitude (a.u.)       :      0.00000
Magnitude (Debye)      :      0.00000

Rotational constants in cm-1:     0.000000     0.000000     0.000000
Rotational constants in MHz :     0.000000     0.000000     0.000000

                             ****ORCA TERMINATED NORMALLY****
TOTAL RUN TIME: 0 days 0 hours 0 minutes 43 seconds 678 msec
