                         Program Version 4.2.0 -  RELEASE  -
|  1> #
|  2> # 07_N CCSD(T)/aug-cc-pv5(+d)z
|  3> #
|  4> ! CCSD(T) aug-cc-pv5(+d)z tightscf
|  5>
|  6> *xyz 0 4
|  7>  N 0.0 0.0 0.0
|  8> *
|  9>
| 10> %maxcore 5000
| 11>
| 12> %pal
| 13> nprocs 10
| 14> end
| 15>
| 16>
| 17>                          ****END OF INPUT****

CARTESIAN COORDINATES (ANGSTROEM)
---------------------------------
  N      0.000000    0.000000    0.000000

 Total Charge           Charge          ....    0
 Multiplicity           Mult            ....    4
 Number of Electrons    NEL             ....    7
 Basis Dimension        Dim             ....  127

ORBITAL ENERGIES
----------------
                 SPIN UP ORBITALS
  NO   OCC          E(Eh)            E(eV)
   0   1.0000     -15.670741      -426.4225
   1   1.0000      -1.162980       -31.6463
   2   1.0000      -0.570924       -15.5356
   3   1.0000      -0.570924       -15.5356
   4   1.0000      -0.570924       -15.5356
   5   0.0000       0.088430         2.4063
   6   0.0000       0.088430         2.4063
   7   0.0000       0.088430         2.4063
   8   0.0000       0.095616         2.6018
   9   0.0000       0.296872         8.0783

                 SPIN DOWN ORBITALS
  NO   OCC          E(Eh)            E(eV)
   0   1.0000     -15.580972      -423.9798
   1   1.0000      -0.725818       -19.7505
   2   0.0000       0.063549         1.7292
   3   0.0000       0.063549         1.7292
   4   0.0000       0.063549         1.7292
   5   0.0000       0.108801         2.9606
   6   0.0000       0.166136         4.5208

E(0)                                       ...    -54.404469085
E(0)                                       ...    -54.404469085
E(CORR)                                    ...     -0.120729881
E(TOT)                                     ...    -54.525198966
E(CCSD(T))                                 ...    -54.528222858

MULLIKEN ATOMIC CHARGES AND SPIN DENSITIES
------------------------------------------
   0 N :    0.000000    3.000000
Sum of atomic charges       :    0.0000000

LOEWDIN ATOMIC CHARGES AND SPIN DENSITIES
-----------------------------------------
   0 N :   -0.000000    3.000000

FINAL SINGLE POINT ENERGY       -54.528222858341

DIPOLE MOMENT
-------------
                                X             Y             Z
Electronic contribution:      0.00000      -0.00000      -0.00000
Nuclear contribution   :      0.00000       0.00000       0.00000
                        -----------------------------------------
Total Dipole Moment    :      0.00000      -0.00000      -0.00000
                        -----------------------------------------
Magnitude (a.u.)       :      0.00000
Magnitude (Debye)      :      0.00000

Rotational constants in cm-1:     0.000000     0.000000     0.000000
Rotational constants in MHz :     0.000000     0.000000     0.000000

                             ****ORCA TERMINATED NORMALLY****
TOTAL RUN TIME: 0 days 0 hours 0 minutes 32 seconds 21 msec
