                         Program Version 4.2.0 -  RELEASE  -
|  1> #
|  2> # 09_F CCSD(T)/aug-cc-pv5(+d)z
|  3> #
|  4> ! CCSD(T) aug-cc-pv5(+d)z tightscf
|  5>
|  6> *xyz 0 2
|  7>  F 0.0 0.0 0.0
|  8> *
|  9>
| 10> %maxcore 5000
| 11>
| 12> %pal
| 13> nprocs 21
| 14> end
| 15>
| 16>
| 17>                          ****END OF INPUT****

CARTESIAN COORDINATES (ANGSTROEM)
---------------------------------
  F      0.000000    0.000000    0.000000

 Total Charge           Charge          ....    0
 Multiplicity           Mult            ....    2
 Number of Electrons    NEL             ....    9
 Basis Dimension        Dim             ....  127

ORBITAL ENERGIES
----------------
                 SPIN UP ORBITALS
  NO   OCC          E(Eh)            E(eV)
   0   1.0000     -26.406714      -718.5632
   1   1.0000      -1.672445       -45.5095
   2   1.0000      -0.845367       -23.0036
   3   1.0000      -0.731612       -19.9082
   4   1.0000      -0.731612       -19.9082
   5   0.0000       0.126855         3.4519
   6   0.0000       0.132453         3.6042
   7   0.0000       0.132453         3.6042
   8   0.0000       0.150766         4.1025
   9   0.0000       0.515526        14.0282

                 SPIN DOWN ORBITALS
  NO   OCC          E(Eh)            E(eV)
   0   1.0000     -26.358841      -717.2605
   1   1.0000      -1.476924       -40.1892
   2   1.0000      -0.679855       -18.4998
   3   1.0000      -0.679855       -18.4998
   4   0.0000       0.033929         0.9232
   5   0.0000       0.133397         3.6299
   6   0.0000       0.133397         3.6299
   7   0.0000       0.155448         4.2300
   8   0.0000       0.164551         4.4777

E(0)                                       ...    -99.416087543
E(0)                                       ...    -99.416087543
E(CORR)                                    ...     -0.240405141
E(TOT)                                     ...    -99.656492684
E(CCSD(T))                                 ...    -99.661665642

MULLIKEN ATOMIC CHARGES AND SPIN DENSITIES
------------------------------------------
   0 F :   -0.000000    1.000000
Sum of atomic charges       :   -0.0000000

LOEWDIN ATOMIC CHARGES AND SPIN DENSITIES
-----------------------------------------
   0 F :   -0.000000    1.000000

FINAL SINGLE POINT ENERGY       -99.661665642408

DIPOLE MOMENT
-------------
                                X             Y             Z
Electronic contribution:     -0.00000      -0.00000      -0.00000
Nuclear contribution   :      0.00000       0.00000       0.00000
                        -----------------------------------------
Total Dipole Moment    :     -0.00000      -0.00000      -0.00000
                        -----------------------------------------
Magnitude (a.u.)       :      0.00000
Magnitude (Debye)      :      0.00000

Rotational constants in cm-1:     0.000000     0.000000     0.000000
Rotational constants in MHz :     0.000000     0.000000     0.000000

                             ****ORCA TERMINATED NORMALLY****
TOTAL RUN TIME: 0 days 0 hours 0 minutes 39 seconds 698 msec
