                         Program Version 4.2.0 -  RELEASE  -
|  1> #
|  2> # 12_Mg CCSD(T)/aug-cc-pv5(+d)z
|  3> #
|  4> ! CCSD(T) aug-cc-pv5(+d)z tightscf
|  5>
|  6> *xyz 0 1
|  7>  Mg 0.0 0.0 0.0
|  8> *
|  9>
| 10> %maxcore 5000
| 11>
| 12> %pal
| 13> nprocs 1
| 14> end
| 15>
| 16> %method
| 17> NewNCore Mg 10 end
| 18> end
| 19>
| 20>
| 21>                          ****END OF INPUT****

CARTESIAN COORDINATES (ANGSTROEM)
---------------------------------
  Mg     0.000000    0.000000    0.000000

 Total Charge           Charge          ....    0
 Multiplicity           Mult            ....    1
 Number of Electrons    NEL             ....   12
 Basis Dimension        Dim             ....  131

ORBITAL ENERGIES
----------------

  NO   OCC          E(Eh)            E(eV)
   0   2.0000     -49.031736     -1334.2214
   1   2.0000      -3.767733      -102.5252
   2   2.0000      -2.282229       -62.1026
   3   2.0000      -2.282229       -62.1026
   4   2.0000      -2.282229       -62.1026
   5   2.0000      -0.253053        -6.8859
   6   0.0000       0.012795         0.3482
   7   0.0000       0.012795         0.3482
   8   0.0000       0.012795         0.3482
   9   0.0000       0.023188         0.6310
  10   0.0000       0.037964         1.0331

E(0)                                       ...   -199.614612702
E(0)                                       ...   -199.614612702
E(CORR)                                    ...     -0.033989983
E(TOT)                                     ...   -199.648602684
E(CCSD(T))                                 ...   -199.648602684

MULLIKEN ATOMIC CHARGES
-----------------------
   0 Mg:   -0.000000
Sum of atomic charges:   -0.0000000

LOEWDIN ATOMIC CHARGES
----------------------
   0 Mg:    0.000000

FINAL SINGLE POINT ENERGY      -199.648602684349

DIPOLE MOMENT
-------------
                                X             Y             Z
Electronic contribution:     -0.00000      -0.00000      -0.00000
Nuclear contribution   :      0.00000       0.00000       0.00000
                        -----------------------------------------
Total Dipole Moment    :     -0.00000      -0.00000      -0.00000
                        -----------------------------------------
Magnitude (a.u.)       :      0.00000
Magnitude (Debye)      :      0.00000

Rotational constants in cm-1:     0.000000     0.000000     0.000000
Rotational constants in MHz :     0.000000     0.000000     0.000000

                             ****ORCA TERMINATED NORMALLY****
TOTAL RUN TIME: 0 days 0 hours 1 minutes 28 seconds 541 msec
