                         Program Version 4.2.0 -  RELEASE  -
|  1> #
|  2> # 13_Al CCSD(T)/aug-cc-pv5(+d)z
|  3> #
|  4> ! CCSD(T) aug-cc-pv5(+d)z tightscf
|  5>
|  6> *xyz 0 2
|  7>  Al 0.0 0.0 0.0
|  8> *
|  9>
| 10> %maxcore 5000
| 11>
| 12> %pal
| 13> nprocs 3
| 14> end
| 15>
| 16>
| 17>                          ****END OF INPUT****

CARTESIAN COORDINATES (ANGSTROEM)
---------------------------------
  Al     0.000000    0.000000    0.000000

 Total Charge           Charge          ....    0
 Multiplicity           Mult            ....    2
 Number of Electrons    NEL             ....   13
 Basis Dimension        Dim             ....  136

ORBITAL ENERGIES
----------------
                 SPIN UP ORBITALS
  NO   OCC          E(Eh)            E(eV)
   0   1.0000     -58.500980     -1591.8926
   1   1.0000      -4.910726      -133.6276
   2   1.0000      -3.225217       -87.7626
   3   1.0000      -3.217871       -87.5627
   4   1.0000      -3.217871       -87.5627
   5   1.0000      -0.425533       -11.5793
   6   1.0000      -0.218529        -5.9465
   7   0.0000       0.009256         0.2519
   8   0.0000       0.009256         0.2519
   9   0.0000       0.032835         0.8935
  10   0.0000       0.034029         0.9260
  11   0.0000       0.044523         1.2115

                 SPIN DOWN ORBITALS
  NO   OCC          E(Eh)            E(eV)
   0   1.0000     -58.497868     -1591.8079
   1   1.0000      -4.907321      -133.5350
   2   1.0000      -3.216331       -87.5208
   3   1.0000      -3.216331       -87.5208
   4   1.0000      -3.206990       -87.2666
   5   1.0000      -0.363376        -9.8880
   6   0.0000       0.012908         0.3512
   7   0.0000       0.012908         0.3512
   8   0.0000       0.025060         0.6819
   9   0.0000       0.036619         0.9965
  10   0.0000       0.047700         1.2980

E(0)                                       ...   -241.880766370
E(0)                                       ...   -241.880766370
E(CORR)                                    ...     -0.052490338
E(TOT)                                     ...   -241.933256708
E(CCSD(T))                                 ...   -241.934578214

MULLIKEN ATOMIC CHARGES AND SPIN DENSITIES
------------------------------------------
   0 Al:    0.000000    1.000000
Sum of atomic charges       :    0.0000000

LOEWDIN ATOMIC CHARGES AND SPIN DENSITIES
-----------------------------------------
   0 Al:    0.000000    1.000000

FINAL SINGLE POINT ENERGY      -241.934578214205

DIPOLE MOMENT
-------------
                                X             Y             Z
Electronic contribution:     -0.00000      -0.00000      -0.00000
Nuclear contribution   :      0.00000       0.00000       0.00000
                        -----------------------------------------
Total Dipole Moment    :     -0.00000      -0.00000      -0.00000
                        -----------------------------------------
Magnitude (a.u.)       :      0.00000
Magnitude (Debye)      :      0.00000

Rotational constants in cm-1:     0.000000     0.000000     0.000000
Rotational constants in MHz :     0.000000     0.000000     0.000000

                             ****ORCA TERMINATED NORMALLY****
TOTAL RUN TIME: 0 days 0 hours 1 minutes 42 seconds 314 msec
