                         Program Version 4.2.0 -  RELEASE  -
|  1> #
|  2> # 14_Si CCSD(T)/aug-cc-pv5(+d)z
|  3> #
|  4> ! CCSD(T) aug-cc-pv5(+d)z tightscf
|  5>
|  6> *xyz 0 3
|  7>  Si 0.0 0.0 0.0
|  8> *
|  9>
| 10> %maxcore 5000
| 11>
| 12> %pal
| 13> nprocs 6
| 14> end
| 15>
| 16>
| 17>                          ****END OF INPUT****

CARTESIAN COORDINATES (ANGSTROEM)
---------------------------------
  Si     0.000000    0.000000    0.000000

 Total Charge           Charge          ....    0
 Multiplicity           Mult            ....    3
 Number of Electrons    NEL             ....   14
 Basis Dimension        Dim             ....  136

ORBITAL ENERGIES
----------------
                 SPIN UP ORBITALS
  NO   OCC          E(Eh)            E(eV)
   0   1.0000     -68.816330     -1872.5875
   1   1.0000      -6.160626      -167.6391
   2   1.0000      -4.268950      -116.1640
   3   1.0000      -4.268950      -116.1640
   4   1.0000      -4.258121      -115.8694
   5   1.0000      -0.619870       -16.8675
   6   1.0000      -0.301410        -8.2018
   7   1.0000      -0.301410        -8.2018
   8   0.0000      -0.010097        -0.2748
   9   0.0000       0.046935         1.2772
  10   0.0000       0.050819         1.3828
  11   0.0000       0.050819         1.3828
  12   0.0000       0.058462         1.5908

                 SPIN DOWN ORBITALS
  NO   OCC          E(Eh)            E(eV)
   0   1.0000     -68.806004     -1872.3066
   1   1.0000      -6.149761      -167.3435
   2   1.0000      -4.253112      -115.7331
   3   1.0000      -4.239860      -115.3725
   4   1.0000      -4.239860      -115.3725
   5   1.0000      -0.462782       -12.5929
   6   0.0000       0.005048         0.1374
   7   0.0000       0.030710         0.8357
   8   0.0000       0.030710         0.8357
   9   0.0000       0.053109         1.4452
  10   0.0000       0.063361         1.7241

E(0)                                       ...   -288.858842576
E(0)                                       ...   -288.858842576
E(CORR)                                    ...     -0.077385724
E(TOT)                                     ...   -288.936228300
E(CCSD(T))                                 ...   -288.939199516

MULLIKEN ATOMIC CHARGES AND SPIN DENSITIES
------------------------------------------
   0 Si:   -0.000000    2.000000
Sum of atomic charges       :   -0.0000000

LOEWDIN ATOMIC CHARGES AND SPIN DENSITIES
-----------------------------------------
   0 Si:   -0.000000    2.000000

FINAL SINGLE POINT ENERGY      -288.939199515821

DIPOLE MOMENT
-------------
                                X             Y             Z
Electronic contribution:      0.00000       0.00000       0.00000
Nuclear contribution   :      0.00000       0.00000       0.00000
                        -----------------------------------------
Total Dipole Moment    :      0.00000       0.00000       0.00000
                        -----------------------------------------
Magnitude (a.u.)       :      0.00000
Magnitude (Debye)      :      0.00000

Rotational constants in cm-1:     0.000000     0.000000     0.000000
Rotational constants in MHz :     0.000000     0.000000     0.000000

                             ****ORCA TERMINATED NORMALLY****
TOTAL RUN TIME: 0 days 0 hours 1 minutes 5 seconds 78 msec
