                         Program Version 4.2.0 -  RELEASE  -
|  1> #
|  2> # 16_S CCSD(T)/aug-cc-pv5(+d)z
|  3> #
|  4> ! CCSD(T) aug-cc-pv5(+d)z tightscf
|  5>
|  6> *xyz 0 3
|  7>  S 0.0 0.0 0.0
|  8> *
|  9>
| 10> %maxcore 5000
| 11>
| 12> %pal
| 13> nprocs 15
| 14> end
| 15>
| 16>
| 17>                          ****END OF INPUT****

CARTESIAN COORDINATES (ANGSTROEM)
---------------------------------
  S      0.000000    0.000000    0.000000

 Total Charge           Charge          ....    0
 Multiplicity           Mult            ....    3
 Number of Electrons    NEL             ....   16
 Basis Dimension        Dim             ....  136

ORBITAL ENERGIES
----------------
                 SPIN UP ORBITALS
  NO   OCC          E(Eh)            E(eV)
   0   1.0000     -92.013201     -2503.8065
   1   1.0000      -9.012700      -245.2480
   2   1.0000      -6.705921      -182.4774
   3   1.0000      -6.705921      -182.4774
   4   1.0000      -6.685444      -181.9202
   5   1.0000      -0.989838       -26.9349
   6   1.0000      -0.486998       -13.2519
   7   1.0000      -0.486998       -13.2519
   8   1.0000      -0.415532       -11.3072
   9   0.0000       0.070628         1.9219
  10   0.0000       0.070628         1.9219
  11   0.0000       0.074183         2.0186
  12   0.0000       0.076250         2.0749
  13   0.0000       0.176530         4.8036

                 SPIN DOWN ORBITALS
  NO   OCC          E(Eh)            E(eV)
   0   1.0000     -91.994033     -2503.2849
   1   1.0000      -8.994212      -244.7449
   2   1.0000      -6.675385      -181.6465
   3   1.0000      -6.659019      -181.2011
   4   1.0000      -6.659019      -181.2011
   5   1.0000      -0.773929       -21.0597
   6   1.0000      -0.379563       -10.3284
   7   0.0000       0.001037         0.0282
   8   0.0000       0.001037         0.0282
   9   0.0000       0.077217         2.1012
  10   0.0000       0.081223         2.2102
  11   0.0000       0.090008         2.4492

E(0)                                       ...   -397.513233679
E(0)                                       ...   -397.513233679
E(CORR)                                    ...     -0.152782650
E(TOT)                                     ...   -397.666016328
E(CCSD(T))                                 ...   -397.672223914

MULLIKEN ATOMIC CHARGES AND SPIN DENSITIES
------------------------------------------
   0 S :   -0.000000    2.000000
Sum of atomic charges       :   -0.0000000

LOEWDIN ATOMIC CHARGES AND SPIN DENSITIES
-----------------------------------------
   0 S :   -0.000000    2.000000

FINAL SINGLE POINT ENERGY      -397.672223914108

DIPOLE MOMENT
-------------
                                X             Y             Z
Electronic contribution:      0.00000       0.00000      -0.00000
Nuclear contribution   :      0.00000       0.00000       0.00000
                        -----------------------------------------
Total Dipole Moment    :      0.00000       0.00000      -0.00000
                        -----------------------------------------
Magnitude (a.u.)       :      0.00000
Magnitude (Debye)      :      0.00000

Rotational constants in cm-1:     0.000000     0.000000     0.000000
Rotational constants in MHz :     0.000000     0.000000     0.000000

                             ****ORCA TERMINATED NORMALLY****
TOTAL RUN TIME: 0 days 0 hours 0 minutes 53 seconds 254 msec
