                         Program Version 4.2.0 -  RELEASE  -
|  1> #
|  2> # 17_Cl CCSD(T)/aug-cc-pv5(+d)z
|  3> #
|  4> ! CCSD(T) aug-cc-pv5(+d)z tightscf
|  5>
|  6> *xyz 0 2
|  7>  Cl 0.0 0.0 0.0
|  8> *
|  9>
| 10> %maxcore 5000
| 11>
| 12> %pal
| 13> nprocs 21
| 14> end
| 15>
| 16>
| 17>                          ****END OF INPUT****

CARTESIAN COORDINATES (ANGSTROEM)
---------------------------------
  Cl     0.000000    0.000000    0.000000

 Total Charge           Charge          ....    0
 Multiplicity           Mult            ....    2
 Number of Electrons    NEL             ....   17
 Basis Dimension        Dim             ....  136

ORBITAL ENERGIES
----------------
                 SPIN UP ORBITALS
  NO   OCC          E(Eh)            E(eV)
   0   1.0000    -104.889526     -2854.1891
   1   1.0000     -10.612218      -288.7731
   2   1.0000      -8.097996      -220.3577
   3   1.0000      -8.073710      -219.6968
   4   1.0000      -8.073710      -219.6968
   5   1.0000      -1.136102       -30.9149
   6   1.0000      -0.581805       -15.8317
   7   1.0000      -0.502503       -13.6738
   8   1.0000      -0.502503       -13.6738
   9   0.0000       0.081270         2.2115
  10   0.0000       0.086859         2.3636
  11   0.0000       0.086859         2.3636
  12   0.0000       0.086869         2.3638
  13   0.0000       0.223423         6.0796

                 SPIN DOWN ORBITALS
  NO   OCC          E(Eh)            E(eV)
   0   1.0000    -104.877726     -2853.8680
   1   1.0000     -10.601108      -288.4708
   2   1.0000      -8.067696      -219.5332
   3   1.0000      -8.067696      -219.5332
   4   1.0000      -8.048180      -219.0021
   5   1.0000      -1.014449       -27.6046
   6   1.0000      -0.480925       -13.0866
   7   1.0000      -0.480925       -13.0866
   8   0.0000      -0.040815        -1.1106
   9   0.0000       0.087336         2.3765
  10   0.0000       0.087336         2.3765
  11   0.0000       0.090370         2.4591
  12   0.0000       0.095129         2.5886

E(0)                                       ...   -459.489775807
E(0)                                       ...   -459.489775807
E(CORR)                                    ...     -0.203709801
E(TOT)                                     ...   -459.693485607
E(CCSD(T))                                 ...   -459.701330406

MULLIKEN ATOMIC CHARGES AND SPIN DENSITIES
------------------------------------------
   0 Cl:    0.000000    1.000000
Sum of atomic charges       :    0.0000000

LOEWDIN ATOMIC CHARGES AND SPIN DENSITIES
-----------------------------------------
   0 Cl:    0.000000    1.000000

FINAL SINGLE POINT ENERGY      -459.701330406273

DIPOLE MOMENT
-------------
                                X             Y             Z
Electronic contribution:      0.00000      -0.00000       0.00000
Nuclear contribution   :      0.00000       0.00000       0.00000
                        -----------------------------------------
Total Dipole Moment    :      0.00000      -0.00000       0.00000
                        -----------------------------------------
Magnitude (a.u.)       :      0.00000
Magnitude (Debye)      :      0.00000

Rotational constants in cm-1:     0.000000     0.000000     0.000000
Rotational constants in MHz :     0.000000     0.000000     0.000000

                             ****ORCA TERMINATED NORMALLY****
TOTAL RUN TIME: 0 days 0 hours 0 minutes 53 seconds 107 msec
