                         Program Version 4.2.0 -  RELEASE  -
|  1> #
|  2> # 18_Ar CCSD(T)/aug-cc-pv5(+d)z
|  3> #
|  4> ! CCSD(T) aug-cc-pv5(+d)z tightscf
|  5>
|  6> *xyz 0 1
|  7>  Ar 0.0 0.0 0.0
|  8> *
|  9>
| 10> %maxcore 5000
| 11>
| 12> %pal
| 13> nprocs 10
| 14> end
| 15>
| 16>
| 17>                          ****END OF INPUT****

CARTESIAN COORDINATES (ANGSTROEM)
---------------------------------
  Ar     0.000000    0.000000    0.000000

 Total Charge           Charge          ....    0
 Multiplicity           Mult            ....    1
 Number of Electrons    NEL             ....   18
 Basis Dimension        Dim             ....  136

ORBITAL ENERGIES
----------------

  NO   OCC          E(Eh)            E(eV)
   0   2.0000    -118.610372     -3227.5523
   1   2.0000     -12.322180      -335.3036
   2   2.0000      -9.571463      -260.4528
   3   2.0000      -9.571463      -260.4528
   4   2.0000      -9.571463      -260.4528
   5   2.0000      -1.277375       -34.7591
   6   2.0000      -0.591030       -16.0827
   7   2.0000      -0.591030       -16.0827
   8   2.0000      -0.591030       -16.0827
   9   0.0000       0.098253         2.6736
  10   0.0000       0.098253         2.6736
  11   0.0000       0.098253         2.6736
  12   0.0000       0.100192         2.7264
  13   0.0000       0.274003         7.4560

E(0)                                       ...   -526.817366380
E(0)                                       ...   -526.817366380
E(CORR)                                    ...     -0.257357720
E(TOT)                                     ...   -527.074724101
E(CCSD(T))                                 ...   -527.084230577

MULLIKEN ATOMIC CHARGES
-----------------------
   0 Ar:    0.000000
Sum of atomic charges:    0.0000000

LOEWDIN ATOMIC CHARGES
----------------------
   0 Ar:    0.000000

FINAL SINGLE POINT ENERGY      -527.084230576952

DIPOLE MOMENT
-------------
                                X             Y             Z
Electronic contribution:      0.00000       0.00000      -0.00000
Nuclear contribution   :      0.00000       0.00000       0.00000
                        -----------------------------------------
Total Dipole Moment    :      0.00000       0.00000      -0.00000
                        -----------------------------------------
Magnitude (a.u.)       :      0.00000
Magnitude (Debye)      :      0.00000

Rotational constants in cm-1:     0.000000     0.000000     0.000000
Rotational constants in MHz :     0.000000     0.000000     0.000000

                             ****ORCA TERMINATED NORMALLY****
TOTAL RUN TIME: 0 days 0 hours 0 minutes 27 seconds 247 msec
