                         Program Version 4.2.0 -  RELEASE  -
|  1> #
|  2> # 21_Sc CCSD(T)/aug-cc-pv5(+d)z
|  3> #
|  4> ! CCSD(T) aug-cc-pv5(+d)z tightscf slowconv kdiis
|  5>
|  6> *xyz 0 2
|  7>  Sc 0.0 0.0 0.0
|  8> *
|  9>
| 10> %maxcore 5000
| 11>
| 12> %pal
| 13> nprocs 24
| 14> end
| 15>
| 16>
| 17>                          ****END OF INPUT****

CARTESIAN COORDINATES (ANGSTROEM)
---------------------------------
  Sc     0.000000    0.000000    0.000000

 Total Charge           Charge          ....    0
 Multiplicity           Mult            ....    2
 Number of Electrons    NEL             ....   21
 Basis Dimension        Dim             ....  202

ORBITAL ENERGIES
----------------
                 SPIN UP ORBITALS
  NO   OCC          E(Eh)            E(eV)
   0   1.0000    -165.897281     -4514.2945
   1   1.0000     -19.084806      -519.3240
   2   1.0000     -15.673746      -426.5043
   3   1.0000     -15.671579      -426.4453
   4   1.0000     -15.671579      -426.4453
   5   1.0000      -2.593189       -70.5642
   6   1.0000      -1.620990       -44.1094
   7   1.0000      -1.620989       -44.1093
   8   1.0000      -1.581550       -43.0362
   9   1.0000      -0.353804        -9.6275
  10   1.0000      -0.216044        -5.8788
  11   0.0000       0.012509         0.3404
  12   0.0000       0.012510         0.3404
  13   0.0000       0.012742         0.3467
  14   0.0000       0.020497         0.5577
  15   0.0000       0.027074         0.7367

                 SPIN DOWN ORBITALS
  NO   OCC          E(Eh)            E(eV)
   0   1.0000    -165.897819     -4514.3092
   1   1.0000     -19.072254      -518.9824
   2   1.0000     -15.671668      -426.4478
   3   1.0000     -15.654185      -425.9720
   4   1.0000     -15.654185      -425.9720
   5   1.0000      -2.538603       -69.0789
   6   1.0000      -1.575067       -42.8597
   7   1.0000      -1.520992       -41.3883
   8   1.0000      -1.520991       -41.3883
   9   1.0000      -0.204513        -5.5651
  10   0.0000       0.010787         0.2935
  11   0.0000       0.013962         0.3799
  12   0.0000       0.013963         0.3799
  13   0.0000       0.020968         0.5706
  14   0.0000       0.027056         0.7362

E(0)                                       ...   -759.740977911
E(0)                                       ...   -759.740977911
E(CORR)                                    ...     -0.357352285
E(TOT)                                     ...   -760.098330197
E(CCSD(T))                                 ...   -760.111344037

MULLIKEN ATOMIC CHARGES AND SPIN DENSITIES
------------------------------------------
   0 Sc:    0.000000    1.000000
Sum of atomic charges       :    0.0000000

LOEWDIN ATOMIC CHARGES AND SPIN DENSITIES
-----------------------------------------
   0 Sc:   -0.000000    1.000000

FINAL SINGLE POINT ENERGY      -760.111344036620

DIPOLE MOMENT
-------------
                                X             Y             Z
Electronic contribution:     -0.00000      -0.00000       0.00000
Nuclear contribution   :      0.00000       0.00000       0.00000
                        -----------------------------------------
Total Dipole Moment    :     -0.00000      -0.00000       0.00000
                        -----------------------------------------
Magnitude (a.u.)       :      0.00000
Magnitude (Debye)      :      0.00000

Rotational constants in cm-1:     0.000000     0.000000     0.000000
Rotational constants in MHz :     0.000000     0.000000     0.000000

                             ****ORCA TERMINATED NORMALLY****
TOTAL RUN TIME: 0 days 0 hours 54 minutes 56 seconds 839 msec
