                         Program Version 4.2.0 -  RELEASE  -
|  1> #
|  2> # 22_Ti CCSD(T)/aug-cc-pv5(+d)z
|  3> #
|  4> ! CCSD(T) aug-cc-pv5(+d)z tightscf slowconv kdiis
|  5>
|  6> *xyz 0 3
|  7>  Ti 0.0 0.0 0.0
|  8> *
|  9>
| 10> %maxcore 5000
| 11>
| 12> %pal
| 13> nprocs 24
| 14> end
| 15>
| 16>
| 17>                          ****END OF INPUT****

CARTESIAN COORDINATES (ANGSTROEM)
---------------------------------
  Ti     0.000000    0.000000    0.000000

 Total Charge           Charge          ....    0
 Multiplicity           Mult            ....    3
 Number of Electrons    NEL             ....   22
 Basis Dimension        Dim             ....  202

ORBITAL ENERGIES
----------------
                 SPIN UP ORBITALS
  NO   OCC          E(Eh)            E(eV)
   0   1.0000    -183.270417     -4987.0416
   1   1.0000     -21.437634      -583.3477
   2   1.0000     -17.805634      -484.5159
   3   1.0000     -17.805634      -484.5159
   4   1.0000     -17.805634      -484.5159
   5   1.0000      -2.936238       -79.8991
   6   1.0000      -1.874252       -51.0010
   7   1.0000      -1.874248       -51.0009
   8   1.0000      -1.874247       -51.0009
   9   1.0000      -0.449634       -12.2352
  10   1.0000      -0.449633       -12.2351
  11   1.0000      -0.231995        -6.3129
  12   0.0000       0.013935         0.3792
  13   0.0000       0.013938         0.3793
  14   0.0000       0.013939         0.3793
  15   0.0000       0.020837         0.5670
  16   0.0000       0.034217         0.9311

                 SPIN DOWN ORBITALS
  NO   OCC          E(Eh)            E(eV)
   0   1.0000    -183.271116     -4987.0606
   1   1.0000     -21.404553      -582.4475
   2   1.0000     -17.773163      -483.6323
   3   1.0000     -17.773161      -483.6323
   4   1.0000     -17.773160      -483.6323
   5   1.0000      -2.808067       -76.4114
   6   1.0000      -1.715714       -46.6870
   7   1.0000      -1.715709       -46.6868
   8   1.0000      -1.715707       -46.6868
   9   1.0000      -0.210035        -5.7153
  10   0.0000       0.014413         0.3922
  11   0.0000       0.014415         0.3922
  12   0.0000       0.014417         0.3923
  13   0.0000       0.021771         0.5924
  14   0.0000       0.034176         0.9300

E(0)                                       ...   -848.414816865
E(0)                                       ...   -848.414816865
E(CORR)                                    ...     -0.402057208
E(TOT)                                     ...   -848.816874074
E(CCSD(T))                                 ...   -848.830728922

MULLIKEN ATOMIC CHARGES AND SPIN DENSITIES
------------------------------------------
   0 Ti:    0.000000    2.000000
Sum of atomic charges       :    0.0000000

LOEWDIN ATOMIC CHARGES AND SPIN DENSITIES
-----------------------------------------
   0 Ti:    0.000000    2.000000

FINAL SINGLE POINT ENERGY      -848.830728921776

DIPOLE MOMENT
-------------
                                X             Y             Z
Electronic contribution:     -0.00000       0.00000      -0.00000
Nuclear contribution   :      0.00000       0.00000       0.00000
                        -----------------------------------------
Total Dipole Moment    :     -0.00000       0.00000      -0.00000
                        -----------------------------------------
Magnitude (a.u.)       :      0.00000
Magnitude (Debye)      :      0.00000

Rotational constants in cm-1:     0.000000     0.000000     0.000000
Rotational constants in MHz :     0.000000     0.000000     0.000000

                             ****ORCA TERMINATED NORMALLY****
TOTAL RUN TIME: 0 days 1 hours 2 minutes 12 seconds 569 msec
