                         Program Version 4.2.0 -  RELEASE  -
|  1> #
|  2> # 24_Cr CCSD(T)/aug-cc-pv5(+d)z
|  3> #
|  4> ! CCSD(T) aug-cc-pv5(+d)z tightscf
|  5>
|  6> *xyz 0 7
|  7>  Cr 0.0 0.0 0.0
|  8> *
|  9>
| 10> %maxcore 5000
| 11>
| 12> %pal
| 13> nprocs 24
| 14> end
| 15>
| 16>
| 17>                          ****END OF INPUT****

CARTESIAN COORDINATES (ANGSTROEM)
---------------------------------
  Cr     0.000000    0.000000    0.000000

 Total Charge           Charge          ....    0
 Multiplicity           Mult            ....    7
 Number of Electrons    NEL             ....   24
 Basis Dimension        Dim             ....  202

ORBITAL ENERGIES
----------------
                 SPIN UP ORBITALS
  NO   OCC          E(Eh)            E(eV)
   0   1.0000    -220.386897     -5997.0324
   1   1.0000     -26.259797      -714.5654
   2   1.0000     -22.188087      -603.7686
   3   1.0000     -22.188087      -603.7686
   4   1.0000     -22.188087      -603.7686
   5   1.0000      -3.458784       -94.1183
   6   1.0000      -2.261461       -61.5375
   7   1.0000      -2.261461       -61.5375
   8   1.0000      -2.261461       -61.5375
   9   1.0000      -0.373688       -10.1686
  10   1.0000      -0.373688       -10.1686
  11   1.0000      -0.373688       -10.1686
  12   1.0000      -0.373688       -10.1686
  13   1.0000      -0.373688       -10.1686
  14   1.0000      -0.222054        -6.0424
  15   0.0000       0.016639         0.4528
  16   0.0000       0.016639         0.4528
  17   0.0000       0.016639         0.4528
  18   0.0000       0.023591         0.6419
  19   0.0000       0.051508         1.4016

                 SPIN DOWN ORBITALS
  NO   OCC          E(Eh)            E(eV)
   0   1.0000    -220.387090     -5997.0376
   1   1.0000     -26.159434      -711.8344
   2   1.0000     -22.091791      -601.1482
   3   1.0000     -22.091791      -601.1482
   4   1.0000     -22.091791      -601.1482
   5   1.0000      -3.111084       -84.6569
   6   1.0000      -1.839851       -50.0649
   7   1.0000      -1.839851       -50.0649
   8   1.0000      -1.839851       -50.0649
   9   0.0000       0.009313         0.2534
  10   0.0000       0.024652         0.6708
  11   0.0000       0.024652         0.6708
  12   0.0000       0.024652         0.6708
  13   0.0000       0.050615         1.3773

E(0)                                       ...  -1043.356912372
E(0)                                       ...  -1043.356912372
E(CORR)                                    ...     -0.513698127
E(TOT)                                     ...  -1043.870610499
E(CCSD(T))                                 ...  -1043.886108767

MULLIKEN ATOMIC CHARGES AND SPIN DENSITIES
------------------------------------------
   0 Cr:   -0.000000    6.000000
Sum of atomic charges       :   -0.0000000

LOEWDIN ATOMIC CHARGES AND SPIN DENSITIES
-----------------------------------------
   0 Cr:   -0.000000    6.000000

FINAL SINGLE POINT ENERGY     -1043.886108766728

DIPOLE MOMENT
-------------
                                X             Y             Z
Electronic contribution:     -0.00000      -0.00000      -0.00000
Nuclear contribution   :      0.00000       0.00000       0.00000
                        -----------------------------------------
Total Dipole Moment    :     -0.00000      -0.00000      -0.00000
                        -----------------------------------------
Magnitude (a.u.)       :      0.00000
Magnitude (Debye)      :      0.00000

Rotational constants in cm-1:     0.000000     0.000000     0.000000
Rotational constants in MHz :     0.000000     0.000000     0.000000

                             ****ORCA TERMINATED NORMALLY****
TOTAL RUN TIME: 0 days 0 hours 48 minutes 12 seconds 210 msec
