                         Program Version 4.2.0 -  RELEASE  -
|  1> #
|  2> # 25_Mn CCSD(T)/aug-cc-pv5(+d)z
|  3> #
|  4> ! CCSD(T) aug-cc-pv5(+d)z tightscf
|  5>
|  6> *xyz 0 6
|  7>  Mn 0.0 0.0 0.0
|  8> *
|  9>
| 10> %maxcore 5000
| 11>
| 12> %pal
| 13> nprocs 24
| 14> end
| 15>
| 16>
| 17>                          ****END OF INPUT****

CARTESIAN COORDINATES (ANGSTROEM)
---------------------------------
  Mn     0.000000    0.000000    0.000000

 Total Charge           Charge          ....    0
 Multiplicity           Mult            ....    6
 Number of Electrons    NEL             ....   25
 Basis Dimension        Dim             ....  202

ORBITAL ENERGIES
----------------
                 SPIN UP ORBITALS
  NO   OCC          E(Eh)            E(eV)
   0   1.0000    -240.358983     -6540.5004
   1   1.0000     -28.962335      -788.1052
   2   1.0000     -24.683999      -671.6858
   3   1.0000     -24.658803      -671.0001
   4   1.0000     -24.658803      -671.0001
   5   1.0000      -3.783897      -102.9651
   6   1.0000      -2.533912       -68.9512
   7   1.0000      -2.471404       -67.2503
   8   1.0000      -2.471404       -67.2503
   9   1.0000      -0.447506       -12.1773
  10   1.0000      -0.440190       -11.9782
  11   1.0000      -0.440190       -11.9782
  12   1.0000      -0.416334       -11.3290
  13   1.0000      -0.371847       -10.1185
  14   1.0000      -0.226476        -6.1627
  15   0.0000       0.016504         0.4491
  16   0.0000       0.018827         0.5123
  17   0.0000       0.018827         0.5123
  18   0.0000       0.023769         0.6468
  19   0.0000       0.056631         1.5410

                 SPIN DOWN ORBITALS
  NO   OCC          E(Eh)            E(eV)
   0   1.0000    -240.357889     -6540.4707
   1   1.0000     -28.863016      -785.4026
   2   1.0000     -24.572249      -668.6449
   3   1.0000     -24.572249      -668.6449
   4   1.0000     -24.572098      -668.6408
   5   1.0000      -3.467462       -94.3544
   6   1.0000      -2.128892       -57.9301
   7   1.0000      -2.128892       -57.9301
   8   1.0000      -2.081767       -56.6478
   9   1.0000      -0.228245        -6.2109
  10   0.0000       0.007486         0.2037
  11   0.0000       0.025309         0.6887
  12   0.0000       0.025678         0.6987
  13   0.0000       0.025678         0.6987
  14   0.0000       0.047004         1.2790

E(0)                                       ...  -1149.753499795
E(0)                                       ...  -1149.753499795
E(CORR)                                    ...     -0.596481555
E(TOT)                                     ...  -1150.349981349
E(CCSD(T))                                 ...  -1150.370381977

MULLIKEN ATOMIC CHARGES AND SPIN DENSITIES
------------------------------------------
   0 Mn:   -0.000000    5.000000
Sum of atomic charges       :   -0.0000000

LOEWDIN ATOMIC CHARGES AND SPIN DENSITIES
-----------------------------------------
   0 Mn:   -0.000000    5.000000

FINAL SINGLE POINT ENERGY     -1150.370381976864

DIPOLE MOMENT
-------------
                                X             Y             Z
Electronic contribution:      0.00000       0.00000      -0.00000
Nuclear contribution   :      0.00000       0.00000       0.00000
                        -----------------------------------------
Total Dipole Moment    :      0.00000       0.00000      -0.00000
                        -----------------------------------------
Magnitude (a.u.)       :      0.00000
Magnitude (Debye)      :      0.00000

Rotational constants in cm-1:     0.000000     0.000000     0.000000
Rotational constants in MHz :     0.000000     0.000000     0.000000

                             ****ORCA TERMINATED NORMALLY****
TOTAL RUN TIME: 0 days 1 hours 4 minutes 38 seconds 727 msec
