                         Program Version 4.2.0 -  RELEASE  -
|  1> #
|  2> # 36_Kr CCSD(T)/aug-cc-pv5(+d)z
|  3> #
|  4> ! CCSD(T) aug-cc-pv5(+d)z tightscf
|  5>
|  6> *xyz 0 1
|  7>  Kr 0.0 0.0 0.0
|  8> *
|  9>
| 10> %maxcore 5000
| 11>
| 12> %pal
| 13> nprocs 24
| 14> end
| 15>
| 16>
| 17>                          ****END OF INPUT****

CARTESIAN COORDINATES (ANGSTROEM)
---------------------------------
  Kr     0.000000    0.000000    0.000000

 Total Charge           Charge          ....    0
 Multiplicity           Mult            ....    1
 Number of Electrons    NEL             ....   36
 Basis Dimension        Dim             ....  140

ORBITAL ENERGIES
----------------

  NO   OCC          E(Eh)            E(eV)
   0   2.0000    -520.165632    -14154.4264
   1   2.0000     -69.903209     -1902.1630
   2   2.0000     -63.009805     -1714.5840
   3   2.0000     -63.009805     -1714.5840
   4   2.0000     -63.009805     -1714.5840
   5   2.0000     -10.849483      -295.2295
   6   2.0000      -8.331506      -226.7118
   7   2.0000      -8.331506      -226.7118
   8   2.0000      -8.331506      -226.7118
   9   2.0000      -3.825241      -104.0901
  10   2.0000      -3.825241      -104.0901
  11   2.0000      -3.825241      -104.0901
  12   2.0000      -3.825241      -104.0901
  13   2.0000      -3.825241      -104.0901
  14   2.0000      -1.152946       -31.3732
  15   2.0000      -0.524189       -14.2639
  16   2.0000      -0.524189       -14.2639
  17   2.0000      -0.524189       -14.2639
  18   0.0000       0.076887         2.0922
  19   0.0000       0.079310         2.1581
  20   0.0000       0.079310         2.1581
  21   0.0000       0.079310         2.1581
  22   0.0000       0.242000         6.5851

E(0)                                       ...  -2752.055419483
E(0)                                       ...  -2752.055419483
E(CORR)                                    ...     -0.407191748
E(TOT)                                     ...  -2752.462611231
E(CCSD(T))                                 ...  -2752.473369687

MULLIKEN ATOMIC CHARGES
-----------------------
   0 Kr:    0.000000
Sum of atomic charges:    0.0000000

LOEWDIN ATOMIC CHARGES
----------------------
   0 Kr:    0.000000

FINAL SINGLE POINT ENERGY     -2752.473369687457

DIPOLE MOMENT
-------------
                                X             Y             Z
Electronic contribution:     -0.00000       0.00000       0.00000
Nuclear contribution   :      0.00000       0.00000       0.00000
                        -----------------------------------------
Total Dipole Moment    :     -0.00000       0.00000       0.00000
                        -----------------------------------------
Magnitude (a.u.)       :      0.00000
Magnitude (Debye)      :      0.00000

Rotational constants in cm-1:     0.000000     0.000000     0.000000
Rotational constants in MHz :     0.000000     0.000000     0.000000

                             ****ORCA TERMINATED NORMALLY****
TOTAL RUN TIME: 0 days 0 hours 1 minutes 3 seconds 775 msec
