                         Program Version 4.2.0 -  RELEASE  -
|  1> #
|  2> # 05_B CCSD(T)/Def2-TZVP
|  3> #
|  4> ! CCSD(T) Def2-TZVP tightscf
|  5>
|  6> *xyz 0 2
|  7>  B 0.0 0.0 0.0
|  8> *
|  9>
| 10> %maxcore 5000
| 11>
| 12> %pal
| 13> nprocs 3
| 14> end
| 15>
| 16>
| 17>                          ****END OF INPUT****

CARTESIAN COORDINATES (ANGSTROEM)
---------------------------------
  B      0.000000    0.000000    0.000000

 Total Charge           Charge          ....    0
 Multiplicity           Mult            ....    2
 Number of Electrons    NEL             ....    5
 Basis Dimension        Dim             ....   31

ORBITAL ENERGIES
----------------
                 SPIN UP ORBITALS
  NO   OCC          E(Eh)            E(eV)
   0   1.0000      -7.701049      -209.5562
   1   1.0000      -0.544968       -14.8293
   2   1.0000      -0.318612        -8.6699
   3   0.0000       0.041858         1.1390
   4   0.0000       0.041858         1.1390
   5   0.0000       0.156142         4.2488
   6   0.0000       0.219230         5.9655
   7   0.0000       0.268742         7.3128

                 SPIN DOWN ORBITALS
  NO   OCC          E(Eh)            E(eV)
   0   1.0000      -7.685645      -209.1370
   1   1.0000      -0.445899       -12.1335
   2   0.0000       0.051526         1.4021
   3   0.0000       0.051526         1.4021
   4   0.0000       0.089229         2.4280
   5   0.0000       0.168080         4.5737
   6   0.0000       0.278512         7.5787

E(0)                                       ...    -24.532332766
E(0)                                       ...    -24.532332766
E(CORR)                                    ...     -0.064259960
E(TOT)                                     ...    -24.596592726
E(CCSD(T))                                 ...    -24.597906836

MULLIKEN ATOMIC CHARGES AND SPIN DENSITIES
------------------------------------------
   0 B :   -0.000000    1.000000
Sum of atomic charges       :   -0.0000000

LOEWDIN ATOMIC CHARGES AND SPIN DENSITIES
-----------------------------------------
   0 B :   -0.000000    1.000000

FINAL SINGLE POINT ENERGY       -24.597906836231

DIPOLE MOMENT
-------------
                                X             Y             Z
Electronic contribution:     -0.00000       0.00000       0.00000
Nuclear contribution   :      0.00000       0.00000       0.00000
                        -----------------------------------------
Total Dipole Moment    :     -0.00000       0.00000       0.00000
                        -----------------------------------------
Magnitude (a.u.)       :      0.00000
Magnitude (Debye)      :      0.00000

Rotational constants in cm-1:     0.000000     0.000000     0.000000
Rotational constants in MHz :     0.000000     0.000000     0.000000

                             ****ORCA TERMINATED NORMALLY****
TOTAL RUN TIME: 0 days 0 hours 0 minutes 9 seconds 798 msec
