                         Program Version 4.2.0 -  RELEASE  -
|  1> #
|  2> # 06_C CCSD(T)/Def2-TZVP
|  3> #
|  4> ! CCSD(T) Def2-TZVP tightscf
|  5>
|  6> *xyz 0 3
|  7>  C 0.0 0.0 0.0
|  8> *
|  9>
| 10> %maxcore 5000
| 11>
| 12> %pal
| 13> nprocs 6
| 14> end
| 15>
| 16>
| 17>                          ****END OF INPUT****

CARTESIAN COORDINATES (ANGSTROEM)
---------------------------------
  C      0.000000    0.000000    0.000000

 Total Charge           Charge          ....    0
 Multiplicity           Mult            ....    3
 Number of Electrons    NEL             ....    6
 Basis Dimension        Dim             ....   31

ORBITAL ENERGIES
----------------
                 SPIN UP ORBITALS
  NO   OCC          E(Eh)            E(eV)
   0   1.0000     -11.345382      -308.7235
   1   1.0000      -0.828803       -22.5529
   2   1.0000      -0.438835       -11.9413
   3   1.0000      -0.438835       -11.9413
   4   0.0000       0.030122         0.8197
   5   0.0000       0.240710         6.5501
   6   0.0000       0.325247         8.8504
   7   0.0000       0.325247         8.8504
   8   0.0000       0.382316        10.4033

                 SPIN DOWN ORBITALS
  NO   OCC          E(Eh)            E(eV)
   0   1.0000     -11.299559      -307.4766
   1   1.0000      -0.583089       -15.8667
   2   0.0000       0.061222         1.6659
   3   0.0000       0.110163         2.9977
   4   0.0000       0.110163         2.9977
   5   0.0000       0.272007         7.4017
   6   0.0000       0.406728        11.0676

E(0)                                       ...    -37.692478829
E(0)                                       ...    -37.692478829
E(CORR)                                    ...     -0.086520495
E(TOT)                                     ...    -37.778999324
E(CCSD(T))                                 ...    -37.781029932

MULLIKEN ATOMIC CHARGES AND SPIN DENSITIES
------------------------------------------
   0 C :   -0.000000    2.000000
Sum of atomic charges       :   -0.0000000

LOEWDIN ATOMIC CHARGES AND SPIN DENSITIES
-----------------------------------------
   0 C :   -0.000000    2.000000

FINAL SINGLE POINT ENERGY       -37.781029931735

DIPOLE MOMENT
-------------
                                X             Y             Z
Electronic contribution:      0.00000       0.00000       0.00000
Nuclear contribution   :      0.00000       0.00000       0.00000
                        -----------------------------------------
Total Dipole Moment    :      0.00000       0.00000       0.00000
                        -----------------------------------------
Magnitude (a.u.)       :      0.00000
Magnitude (Debye)      :      0.00000

Rotational constants in cm-1:     0.000000     0.000000     0.000000
Rotational constants in MHz :     0.000000     0.000000     0.000000

                             ****ORCA TERMINATED NORMALLY****
TOTAL RUN TIME: 0 days 0 hours 0 minutes 5 seconds 15 msec
