                         Program Version 4.2.0 -  RELEASE  -
|  1> #
|  2> # 07_N CCSD(T)/Def2-TZVP
|  3> #
|  4> ! CCSD(T) Def2-TZVP tightscf
|  5>
|  6> *xyz 0 4
|  7>  N 0.0 0.0 0.0
|  8> *
|  9>
| 10> %maxcore 5000
| 11>
| 12> %pal
| 13> nprocs 10
| 14> end
| 15>
| 16>
| 17>                          ****END OF INPUT****

CARTESIAN COORDINATES (ANGSTROEM)
---------------------------------
  N      0.000000    0.000000    0.000000

 Total Charge           Charge          ....    0
 Multiplicity           Mult            ....    4
 Number of Electrons    NEL             ....    7
 Basis Dimension        Dim             ....   31

ORBITAL ENERGIES
----------------
                 SPIN UP ORBITALS
  NO   OCC          E(Eh)            E(eV)
   0   1.0000     -15.670567      -426.4178
   1   1.0000      -1.162391       -31.6303
   2   1.0000      -0.570598       -15.5267
   3   1.0000      -0.570598       -15.5267
   4   1.0000      -0.570598       -15.5267
   5   0.0000       0.341232         9.2854
   6   0.0000       0.446752        12.1567
   7   0.0000       0.446752        12.1567
   8   0.0000       0.446752        12.1567
   9   0.0000       1.190185        32.3866

                 SPIN DOWN ORBITALS
  NO   OCC          E(Eh)            E(eV)
   0   1.0000     -15.579633      -423.9434
   1   1.0000      -0.725392       -19.7389
   2   0.0000       0.129416         3.5216
   3   0.0000       0.129416         3.5216
   4   0.0000       0.129416         3.5216
   5   0.0000       0.399243        10.8640
   6   0.0000       0.603468        16.4212

E(0)                                       ...    -54.402746885
E(0)                                       ...    -54.402746885
E(CORR)                                    ...     -0.110931987
E(TOT)                                     ...    -54.513678872
E(CCSD(T))                                 ...    -54.515941327

MULLIKEN ATOMIC CHARGES AND SPIN DENSITIES
------------------------------------------
   0 N :    0.000000    3.000000
Sum of atomic charges       :    0.0000000

LOEWDIN ATOMIC CHARGES AND SPIN DENSITIES
-----------------------------------------
   0 N :    0.000000    3.000000

FINAL SINGLE POINT ENERGY       -54.515941326886

DIPOLE MOMENT
-------------
                                X             Y             Z
Electronic contribution:      0.00000      -0.00000      -0.00000
Nuclear contribution   :      0.00000       0.00000       0.00000
                        -----------------------------------------
Total Dipole Moment    :      0.00000      -0.00000      -0.00000
                        -----------------------------------------
Magnitude (a.u.)       :      0.00000
Magnitude (Debye)      :      0.00000

Rotational constants in cm-1:     0.000000     0.000000     0.000000
Rotational constants in MHz :     0.000000     0.000000     0.000000

                             ****ORCA TERMINATED NORMALLY****
TOTAL RUN TIME: 0 days 0 hours 0 minutes 5 seconds 525 msec
