                         Program Version 4.2.0 -  RELEASE  -
|  1> #
|  2> # 08_O CCSD(T)/Def2-TZVP
|  3> #
|  4> ! CCSD(T) Def2-TZVP tightscf
|  5>
|  6> *xyz 0 3
|  7>  O 0.0 0.0 0.0
|  8> *
|  9>
| 10> %maxcore 5000
| 11>
| 12> %pal
| 13> nprocs 15
| 14> end
| 15>
| 16>
| 17>                          ****END OF INPUT****

CARTESIAN COORDINATES (ANGSTROEM)
---------------------------------
  O      0.000000    0.000000    0.000000

 Total Charge           Charge          ....    0
 Multiplicity           Mult            ....    3
 Number of Electrons    NEL             ....    8
 Basis Dimension        Dim             ....   31

ORBITAL ENERGIES
----------------
                 SPIN UP ORBITALS
  NO   OCC          E(Eh)            E(eV)
   0   1.0000     -20.706003      -563.4390
   1   1.0000      -1.416246       -38.5380
   2   1.0000      -0.709256       -19.2998
   3   1.0000      -0.709256       -19.2998
   4   1.0000      -0.610025       -16.5996
   5   0.0000       0.471856        12.8399
   6   0.0000       0.526319        14.3219
   7   0.0000       0.526319        14.3219
   8   0.0000       0.561782        15.2869
   9   0.0000       1.609728        43.8029

                 SPIN DOWN ORBITALS
  NO   OCC          E(Eh)            E(eV)
   0   1.0000     -20.626702      -561.2811
   1   1.0000      -1.074501       -29.2387
   2   1.0000      -0.520892       -14.1742
   3   0.0000       0.099938         2.7194
   4   0.0000       0.099938         2.7194
   5   0.0000       0.515970        14.0403
   6   0.0000       0.584661        15.9094
   7   0.0000       0.675258        18.3747

E(0)                                       ...    -74.815625091
E(0)                                       ...    -74.815625091
E(CORR)                                    ...     -0.158274494
E(TOT)                                     ...    -74.973899586
E(CCSD(T))                                 ...    -74.976745109

MULLIKEN ATOMIC CHARGES AND SPIN DENSITIES
------------------------------------------
   0 O :   -0.000000    2.000000
Sum of atomic charges       :   -0.0000000

LOEWDIN ATOMIC CHARGES AND SPIN DENSITIES
-----------------------------------------
   0 O :   -0.000000    2.000000

FINAL SINGLE POINT ENERGY       -74.976745108554

DIPOLE MOMENT
-------------
                                X             Y             Z
Electronic contribution:     -0.00000       0.00000      -0.00000
Nuclear contribution   :      0.00000       0.00000       0.00000
                        -----------------------------------------
Total Dipole Moment    :     -0.00000       0.00000      -0.00000
                        -----------------------------------------
Magnitude (a.u.)       :      0.00000
Magnitude (Debye)      :      0.00000

Rotational constants in cm-1:     0.000000     0.000000     0.000000
Rotational constants in MHz :     0.000000     0.000000     0.000000

                             ****ORCA TERMINATED NORMALLY****
TOTAL RUN TIME: 0 days 0 hours 0 minutes 7 seconds 271 msec
