                         Program Version 4.2.0 -  RELEASE  -
|  1> #
|  2> # 13_Al CCSD(T)/Def2-TZVP
|  3> #
|  4> ! CCSD(T) Def2-TZVP tightscf
|  5>
|  6> *xyz 0 2
|  7>  Al 0.0 0.0 0.0
|  8> *
|  9>
| 10> %maxcore 5000
| 11>
| 12> %pal
| 13> nprocs 3
| 14> end
| 15>
| 16>
| 17>                          ****END OF INPUT****

CARTESIAN COORDINATES (ANGSTROEM)
---------------------------------
  Al     0.000000    0.000000    0.000000

 Total Charge           Charge          ....    0
 Multiplicity           Mult            ....    2
 Number of Electrons    NEL             ....   13
 Basis Dimension        Dim             ....   37

ORBITAL ENERGIES
----------------
                 SPIN UP ORBITALS
  NO   OCC          E(Eh)            E(eV)
   0   1.0000     -58.498289     -1591.8194
   1   1.0000      -4.909875      -133.6045
   2   1.0000      -3.224437       -87.7414
   3   1.0000      -3.217120       -87.5423
   4   1.0000      -3.217120       -87.5423
   5   1.0000      -0.425165       -11.5693
   6   1.0000      -0.217710        -5.9242
   7   0.0000       0.025334         0.6894
   8   0.0000       0.025334         0.6894
   9   0.0000       0.235488         6.4079
  10   0.0000       0.255040         6.9400
  11   0.0000       0.258717         7.0400

                 SPIN DOWN ORBITALS
  NO   OCC          E(Eh)            E(eV)
   0   1.0000     -58.495042     -1591.7310
   1   1.0000      -4.906234      -133.5054
   2   1.0000      -3.215427       -87.4962
   3   1.0000      -3.215427       -87.4962
   4   1.0000      -3.206129       -87.2432
   5   1.0000      -0.362936        -9.8760
   6   0.0000       0.033025         0.8987
   7   0.0000       0.033025         0.8987
   8   0.0000       0.071595         1.9482
   9   0.0000       0.250155         6.8071
  10   0.0000       0.276961         7.5365

E(0)                                       ...   -241.874349330
E(0)                                       ...   -241.874349330
E(CORR)                                    ...     -0.050382760
E(TOT)                                     ...   -241.924732090
E(CCSD(T))                                 ...   -241.925836950

MULLIKEN ATOMIC CHARGES AND SPIN DENSITIES
------------------------------------------
   0 Al:   -0.000000    1.000000
Sum of atomic charges       :   -0.0000000

LOEWDIN ATOMIC CHARGES AND SPIN DENSITIES
-----------------------------------------
   0 Al:   -0.000000    1.000000

FINAL SINGLE POINT ENERGY      -241.925836950121

DIPOLE MOMENT
-------------
                                X             Y             Z
Electronic contribution:     -0.00000      -0.00000      -0.00000
Nuclear contribution   :      0.00000       0.00000       0.00000
                        -----------------------------------------
Total Dipole Moment    :     -0.00000      -0.00000      -0.00000
                        -----------------------------------------
Magnitude (a.u.)       :      0.00000
Magnitude (Debye)      :      0.00000

Rotational constants in cm-1:     0.000000     0.000000     0.000000
Rotational constants in MHz :     0.000000     0.000000     0.000000

                             ****ORCA TERMINATED NORMALLY****
TOTAL RUN TIME: 0 days 0 hours 0 minutes 7 seconds 717 msec
