                         Program Version 4.2.0 -  RELEASE  -
|  1> #
|  2> # 14_Si CCSD(T)/Def2-TZVP
|  3> #
|  4> ! CCSD(T) Def2-TZVP tightscf
|  5>
|  6> *xyz 0 3
|  7>  Si 0.0 0.0 0.0
|  8> *
|  9>
| 10> %maxcore 5000
| 11>
| 12> %pal
| 13> nprocs 6
| 14> end
| 15>
| 16>
| 17>                          ****END OF INPUT****

CARTESIAN COORDINATES (ANGSTROEM)
---------------------------------
  Si     0.000000    0.000000    0.000000

 Total Charge           Charge          ....    0
 Multiplicity           Mult            ....    3
 Number of Electrons    NEL             ....   14
 Basis Dimension        Dim             ....   37

ORBITAL ENERGIES
----------------
                 SPIN UP ORBITALS
  NO   OCC          E(Eh)            E(eV)
   0   1.0000     -68.813902     -1872.5215
   1   1.0000      -6.160085      -167.6244
   2   1.0000      -4.268267      -116.1454
   3   1.0000      -4.268267      -116.1454
   4   1.0000      -4.257503      -115.8525
   5   1.0000      -0.619391       -16.8545
   6   1.0000      -0.300881        -8.1874
   7   1.0000      -0.300881        -8.1874
   8   0.0000      -0.003273        -0.0891
   9   0.0000       0.284554         7.7431
  10   0.0000       0.284554         7.7431
  11   0.0000       0.312017         8.4904
  12   0.0000       0.314268         8.5517

                 SPIN DOWN ORBITALS
  NO   OCC          E(Eh)            E(eV)
   0   1.0000     -68.803234     -1872.2312
   1   1.0000      -6.148834      -167.3183
   2   1.0000      -4.252155      -115.7070
   3   1.0000      -4.239016      -115.3495
   4   1.0000      -4.239016      -115.3495
   5   1.0000      -0.462479       -12.5847
   6   0.0000       0.016753         0.4559
   7   0.0000       0.061025         1.6606
   8   0.0000       0.061025         1.6606
   9   0.0000       0.321789         8.7563
  10   0.0000       0.357045         9.7157

E(0)                                       ...   -288.850793492
E(0)                                       ...   -288.850793492
E(CORR)                                    ...     -0.073529768
E(TOT)                                     ...   -288.924323260
E(CCSD(T))                                 ...   -288.926743790

MULLIKEN ATOMIC CHARGES AND SPIN DENSITIES
------------------------------------------
   0 Si:    0.000000    2.000000
Sum of atomic charges       :    0.0000000

LOEWDIN ATOMIC CHARGES AND SPIN DENSITIES
-----------------------------------------
   0 Si:    0.000000    2.000000

FINAL SINGLE POINT ENERGY      -288.926743790490

DIPOLE MOMENT
-------------
                                X             Y             Z
Electronic contribution:     -0.00000       0.00000      -0.00000
Nuclear contribution   :      0.00000       0.00000       0.00000
                        -----------------------------------------
Total Dipole Moment    :     -0.00000       0.00000      -0.00000
                        -----------------------------------------
Magnitude (a.u.)       :      0.00000
Magnitude (Debye)      :      0.00000

Rotational constants in cm-1:     0.000000     0.000000     0.000000
Rotational constants in MHz :     0.000000     0.000000     0.000000

                             ****ORCA TERMINATED NORMALLY****
TOTAL RUN TIME: 0 days 0 hours 0 minutes 5 seconds 271 msec
