                         Program Version 4.2.0 -  RELEASE  -
|  1> #
|  2> # 15_P CCSD(T)/Def2-TZVP
|  3> #
|  4> ! CCSD(T) Def2-TZVP tightscf
|  5>
|  6> *xyz 0 4
|  7>  P 0.0 0.0 0.0
|  8> *
|  9>
| 10> %maxcore 5000
| 11>
| 12> %pal
| 13> nprocs 10
| 14> end
| 15>
| 16>
| 17>                          ****END OF INPUT****

CARTESIAN COORDINATES (ANGSTROEM)
---------------------------------
  P      0.000000    0.000000    0.000000

 Total Charge           Charge          ....    0
 Multiplicity           Mult            ....    4
 Number of Electrons    NEL             ....   15
 Basis Dimension        Dim             ....   37

ORBITAL ENERGIES
----------------
                 SPIN UP ORBITALS
  NO   OCC          E(Eh)            E(eV)
   0   1.0000     -79.977996     -2176.3119
   1   1.0000      -7.521389      -204.6674
   2   1.0000      -5.420968      -147.5120
   3   1.0000      -5.420968      -147.5120
   4   1.0000      -5.420968      -147.5120
   5   1.0000      -0.835501       -22.7352
   6   1.0000      -0.391421       -10.6511
   7   1.0000      -0.391421       -10.6511
   8   1.0000      -0.391421       -10.6511
   9   0.0000       0.335795         9.1375
  10   0.0000       0.335795         9.1375
  11   0.0000       0.335795         9.1375
  12   0.0000       0.392175        10.6716
  13   0.0000       0.392175        10.6716

                 SPIN DOWN ORBITALS
  NO   OCC          E(Eh)            E(eV)
   0   1.0000     -79.955641     -2175.7036
   1   1.0000      -7.499117      -204.0613
   2   1.0000      -5.379210      -146.3758
   3   1.0000      -5.379210      -146.3758
   4   1.0000      -5.379210      -146.3758
   5   1.0000      -0.556049       -15.1309
   6   0.0000       0.051318         1.3964
   7   0.0000       0.051318         1.3964
   8   0.0000       0.051318         1.3964
   9   0.0000       0.417786        11.3685
  10   0.0000       0.417786        11.3685

E(0)                                       ...   -340.709862624
E(0)                                       ...   -340.709862624
E(CORR)                                    ...     -0.099767234
E(TOT)                                     ...   -340.809629858
E(CCSD(T))                                 ...   -340.813388546

MULLIKEN ATOMIC CHARGES AND SPIN DENSITIES
------------------------------------------
   0 P :    0.000000    3.000000
Sum of atomic charges       :    0.0000000

LOEWDIN ATOMIC CHARGES AND SPIN DENSITIES
-----------------------------------------
   0 P :    0.000000    3.000000

FINAL SINGLE POINT ENERGY      -340.813388546154

DIPOLE MOMENT
-------------
                                X             Y             Z
Electronic contribution:     -0.00000       0.00000      -0.00000
Nuclear contribution   :      0.00000       0.00000       0.00000
                        -----------------------------------------
Total Dipole Moment    :     -0.00000       0.00000      -0.00000
                        -----------------------------------------
Magnitude (a.u.)       :      0.00000
Magnitude (Debye)      :      0.00000

Rotational constants in cm-1:     0.000000     0.000000     0.000000
Rotational constants in MHz :     0.000000     0.000000     0.000000

                             ****ORCA TERMINATED NORMALLY****
TOTAL RUN TIME: 0 days 0 hours 0 minutes 10 seconds 681 msec
