                         Program Version 4.2.0 -  RELEASE  -
|  1> #
|  2> # 16_S CCSD(T)/Def2-TZVP
|  3> #
|  4> ! CCSD(T) Def2-TZVP tightscf
|  5>
|  6> *xyz 0 3
|  7>  S 0.0 0.0 0.0
|  8> *
|  9>
| 10> %maxcore 5000
| 11>
| 12> %pal
| 13> nprocs 15
| 14> end
| 15>
| 16>
| 17>                          ****END OF INPUT****

CARTESIAN COORDINATES (ANGSTROEM)
---------------------------------
  S      0.000000    0.000000    0.000000

 Total Charge           Charge          ....    0
 Multiplicity           Mult            ....    3
 Number of Electrons    NEL             ....   16
 Basis Dimension        Dim             ....   37

ORBITAL ENERGIES
----------------
                 SPIN UP ORBITALS
  NO   OCC          E(Eh)            E(eV)
   0   1.0000     -92.009843     -2503.7151
   1   1.0000      -9.011575      -245.2174
   2   1.0000      -6.704776      -182.4462
   3   1.0000      -6.704776      -182.4462
   4   1.0000      -6.684294      -181.8889
   5   1.0000      -0.988330       -26.8938
   6   1.0000      -0.485355       -13.2072
   7   1.0000      -0.485355       -13.2072
   8   1.0000      -0.414217       -11.2714
   9   0.0000       0.379387        10.3236
  10   0.0000       0.379387        10.3236
  11   0.0000       0.410915        11.1816
  12   0.0000       0.453846        12.3498
  13   0.0000       0.453846        12.3498

                 SPIN DOWN ORBITALS
  NO   OCC          E(Eh)            E(eV)
   0   1.0000     -91.990134     -2503.1788
   1   1.0000      -8.992813      -244.7069
   2   1.0000      -6.673956      -181.6076
   3   1.0000      -6.657528      -181.1605
   4   1.0000      -6.657528      -181.1605
   5   1.0000      -0.773215       -21.0402
   6   1.0000      -0.378294       -10.2939
   7   0.0000       0.013015         0.3542
   8   0.0000       0.013015         0.3542
   9   0.0000       0.421848        11.4791
  10   0.0000       0.458638        12.4802
  11   0.0000       0.458638        12.4802

E(0)                                       ...   -397.501955052
E(0)                                       ...   -397.501955052
E(CORR)                                    ...     -0.138113191
E(TOT)                                     ...   -397.640068243
E(CCSD(T))                                 ...   -397.644726936

MULLIKEN ATOMIC CHARGES AND SPIN DENSITIES
------------------------------------------
   0 S :   -0.000000    2.000000
Sum of atomic charges       :   -0.0000000

LOEWDIN ATOMIC CHARGES AND SPIN DENSITIES
-----------------------------------------
   0 S :    0.000000    2.000000

FINAL SINGLE POINT ENERGY      -397.644726936499

DIPOLE MOMENT
-------------
                                X             Y             Z
Electronic contribution:     -0.00000      -0.00000       0.00000
Nuclear contribution   :      0.00000       0.00000       0.00000
                        -----------------------------------------
Total Dipole Moment    :     -0.00000      -0.00000       0.00000
                        -----------------------------------------
Magnitude (a.u.)       :      0.00000
Magnitude (Debye)      :      0.00000

Rotational constants in cm-1:     0.000000     0.000000     0.000000
Rotational constants in MHz :     0.000000     0.000000     0.000000

                             ****ORCA TERMINATED NORMALLY****
TOTAL RUN TIME: 0 days 0 hours 0 minutes 6 seconds 764 msec
