                         Program Version 4.2.0 -  RELEASE  -
|  1> #
|  2> # 17_Cl CCSD(T)/Def2-TZVP
|  3> #
|  4> ! CCSD(T) Def2-TZVP tightscf
|  5>
|  6> *xyz 0 2
|  7>  Cl 0.0 0.0 0.0
|  8> *
|  9>
| 10> %maxcore 5000
| 11>
| 12> %pal
| 13> nprocs 21
| 14> end
| 15>
| 16>
| 17>                          ****END OF INPUT****

CARTESIAN COORDINATES (ANGSTROEM)
---------------------------------
  Cl     0.000000    0.000000    0.000000

 Total Charge           Charge          ....    0
 Multiplicity           Mult            ....    2
 Number of Electrons    NEL             ....   17
 Basis Dimension        Dim             ....   37

ORBITAL ENERGIES
----------------
                 SPIN UP ORBITALS
  NO   OCC          E(Eh)            E(eV)
   0   1.0000    -104.886352     -2854.1027
   1   1.0000     -10.611449      -288.7522
   2   1.0000      -8.097250      -220.3374
   3   1.0000      -8.072989      -219.6772
   4   1.0000      -8.072989      -219.6772
   5   1.0000      -1.134898       -30.8822
   6   1.0000      -0.580140       -15.7864
   7   1.0000      -0.501250       -13.6397
   8   1.0000      -0.501250       -13.6397
   9   0.0000       0.447282        12.1712
  10   0.0000       0.480648        13.0791
  11   0.0000       0.480648        13.0791
  12   0.0000       0.557710        15.1761
  13   0.0000       0.570637        15.5278

                 SPIN DOWN ORBITALS
  NO   OCC          E(Eh)            E(eV)
   0   1.0000    -104.874115     -2853.7697
   1   1.0000     -10.600248      -288.4474
   2   1.0000      -8.066766      -219.5079
   3   1.0000      -8.066766      -219.5079
   4   1.0000      -8.047084      -218.9723
   5   1.0000      -1.013630       -27.5823
   6   1.0000      -0.479621       -13.0511
   7   1.0000      -0.479621       -13.0511
   8   0.0000      -0.034352        -0.9348
   9   0.0000       0.486653        13.2425
  10   0.0000       0.486653        13.2425
  11   0.0000       0.523426        14.2431
  12   0.0000       0.620201        16.8765

E(0)                                       ...   -459.476809922
E(0)                                       ...   -459.476809922
E(CORR)                                    ...     -0.179504589
E(TOT)                                     ...   -459.656314511
E(CCSD(T))                                 ...   -459.661999708

MULLIKEN ATOMIC CHARGES AND SPIN DENSITIES
------------------------------------------
   0 Cl:   -0.000000    1.000000
Sum of atomic charges       :   -0.0000000

LOEWDIN ATOMIC CHARGES AND SPIN DENSITIES
-----------------------------------------
   0 Cl:   -0.000000    1.000000

FINAL SINGLE POINT ENERGY      -459.661999707870

DIPOLE MOMENT
-------------
                                X             Y             Z
Electronic contribution:      0.00000       0.00000      -0.00000
Nuclear contribution   :      0.00000       0.00000       0.00000
                        -----------------------------------------
Total Dipole Moment    :      0.00000       0.00000      -0.00000
                        -----------------------------------------
Magnitude (a.u.)       :      0.00000
Magnitude (Debye)      :      0.00000

Rotational constants in cm-1:     0.000000     0.000000     0.000000
Rotational constants in MHz :     0.000000     0.000000     0.000000

                             ****ORCA TERMINATED NORMALLY****
TOTAL RUN TIME: 0 days 0 hours 0 minutes 8 seconds 291 msec
