                         Program Version 4.2.0 -  RELEASE  -
|  1> #
|  2> # 18_Ar CCSD(T)/Def2-TZVP
|  3> #
|  4> ! CCSD(T) Def2-TZVP tightscf
|  5>
|  6> *xyz 0 1
|  7>  Ar 0.0 0.0 0.0
|  8> *
|  9>
| 10> %maxcore 5000
| 11>
| 12> %pal
| 13> nprocs 10
| 14> end
| 15>
| 16>
| 17>                          ****END OF INPUT****

CARTESIAN COORDINATES (ANGSTROEM)
---------------------------------
  Ar     0.000000    0.000000    0.000000

 Total Charge           Charge          ....    0
 Multiplicity           Mult            ....    1
 Number of Electrons    NEL             ....   18
 Basis Dimension        Dim             ....   37

ORBITAL ENERGIES
----------------

  NO   OCC          E(Eh)            E(eV)
   0   2.0000    -118.607432     -3227.4723
   1   2.0000     -12.321972      -335.2979
   2   2.0000      -9.571210      -260.4459
   3   2.0000      -9.571210      -260.4459
   4   2.0000      -9.571210      -260.4459
   5   2.0000      -1.276555       -34.7368
   6   2.0000      -0.589916       -16.0524
   7   2.0000      -0.589916       -16.0524
   8   2.0000      -0.589916       -16.0524
   9   0.0000       0.565788        15.3959
  10   0.0000       0.565788        15.3959
  11   0.0000       0.565788        15.3959
  12   0.0000       0.700496        19.0615
  13   0.0000       0.700496        19.0615

E(0)                                       ...   -526.802760332
E(0)                                       ...   -526.802760332
E(CORR)                                    ...     -0.222298471
E(TOT)                                     ...   -527.025058803
E(CCSD(T))                                 ...   -527.031815440

MULLIKEN ATOMIC CHARGES
-----------------------
   0 Ar:   -0.000000
Sum of atomic charges:   -0.0000000

LOEWDIN ATOMIC CHARGES
----------------------
   0 Ar:    0.000000

FINAL SINGLE POINT ENERGY      -527.031815440122

DIPOLE MOMENT
-------------
                                X             Y             Z
Electronic contribution:     -0.00000       0.00000      -0.00000
Nuclear contribution   :      0.00000       0.00000       0.00000
                        -----------------------------------------
Total Dipole Moment    :     -0.00000       0.00000      -0.00000
                        -----------------------------------------
Magnitude (a.u.)       :      0.00000
Magnitude (Debye)      :      0.00000

Rotational constants in cm-1:     0.000000     0.000000     0.000000
Rotational constants in MHz :     0.000000     0.000000     0.000000

                             ****ORCA TERMINATED NORMALLY****
TOTAL RUN TIME: 0 days 0 hours 0 minutes 3 seconds 589 msec
