                         Program Version 4.2.0 -  RELEASE  -
|  1> #
|  2> # 19_K CCSD(T)/Def2-TZVP
|  3> #
|  4> ! CCSD(T) Def2-TZVP tightscf
|  5>
|  6> *xyz 0 2
|  7>  K 0.0 0.0 0.0
|  8> *
|  9>
| 10> %maxcore 5000
| 11>
| 12> %pal
| 13> nprocs 24
| 14> end
| 15>
| 16>
| 17>                          ****END OF INPUT****

CARTESIAN COORDINATES (ANGSTROEM)
---------------------------------
  K      0.000000    0.000000    0.000000

 Total Charge           Charge          ....    0
 Multiplicity           Mult            ....    2
 Number of Electrons    NEL             ....   19
 Basis Dimension        Dim             ....   33

ORBITAL ENERGIES
----------------
                 SPIN UP ORBITALS
  NO   OCC          E(Eh)            E(eV)
   0   1.0000    -133.531794     -3633.5848
   1   1.0000     -14.489796      -394.2874
   2   1.0000     -11.518285      -313.4285
   3   1.0000     -11.518285      -313.4285
   4   1.0000     -11.518285      -313.4285
   5   1.0000      -1.751031       -47.6480
   6   1.0000      -0.955139       -25.9906
   7   1.0000      -0.955139       -25.9906
   8   1.0000      -0.955139       -25.9906
   9   1.0000      -0.147645        -4.0176
  10   0.0000       0.047308         1.2873
  11   0.0000       0.047308         1.2873
  12   0.0000       0.047308         1.2873
  13   0.0000       0.065650         1.7864
  14   0.0000       0.130867         3.5611

                 SPIN DOWN ORBITALS
  NO   OCC          E(Eh)            E(eV)
   0   1.0000    -133.530932     -3633.5614
   1   1.0000     -14.488037      -394.2395
   2   1.0000     -11.517931      -313.4188
   3   1.0000     -11.517931      -313.4188
   4   1.0000     -11.517931      -313.4188
   5   1.0000      -1.746055       -47.5126
   6   1.0000      -0.953395       -25.9432
   7   1.0000      -0.953395       -25.9432
   8   1.0000      -0.953395       -25.9432
   9   0.0000       0.011439         0.3113
  10   0.0000       0.086049         2.3415
  11   0.0000       0.086049         2.3415
  12   0.0000       0.086049         2.3415
  13   0.0000       0.095035         2.5860

E(0)                                       ...   -599.153350010
E(0)                                       ...   -599.153350010
E(CORR)                                    ...     -0.170516679
E(TOT)                                     ...   -599.323866689
E(CCSD(T))                                 ...   -599.325951344

MULLIKEN ATOMIC CHARGES AND SPIN DENSITIES
------------------------------------------
   0 K :   -0.000000    1.000000
Sum of atomic charges       :   -0.0000000

LOEWDIN ATOMIC CHARGES AND SPIN DENSITIES
-----------------------------------------
   0 K :    0.000000    1.000000

FINAL SINGLE POINT ENERGY      -599.325951344140

DIPOLE MOMENT
-------------
                                X             Y             Z
Electronic contribution:      0.00000      -0.00000      -0.00000
Nuclear contribution   :      0.00000       0.00000       0.00000
                        -----------------------------------------
Total Dipole Moment    :      0.00000      -0.00000      -0.00000
                        -----------------------------------------
Magnitude (a.u.)       :      0.00000
Magnitude (Debye)      :      0.00000

Rotational constants in cm-1:     0.000000     0.000000     0.000000
Rotational constants in MHz :     0.000000     0.000000     0.000000

                             ****ORCA TERMINATED NORMALLY****
TOTAL RUN TIME: 0 days 0 hours 0 minutes 8 seconds 975 msec
