                         Program Version 4.2.0 -  RELEASE  -
|  1> #
|  2> # 20_Ca CCSD(T)/Def2-TZVP
|  3> #
|  4> ! CCSD(T) Def2-TZVP tightscf
|  5>
|  6> *xyz 0 1
|  7>  Ca 0.0 0.0 0.0
|  8> *
|  9>
| 10> %maxcore 5000
| 11>
| 12> %pal
| 13> nprocs 15
| 14> end
| 15>
| 16>
| 17>                          ****END OF INPUT****

CARTESIAN COORDINATES (ANGSTROEM)
---------------------------------
  Ca     0.000000    0.000000    0.000000

 Total Charge           Charge          ....    0
 Multiplicity           Mult            ....    1
 Number of Electrons    NEL             ....   20
 Basis Dimension        Dim             ....   36

ORBITAL ENERGIES
----------------

  NO   OCC          E(Eh)            E(eV)
   0   2.0000    -149.362522     -4064.3609
   1   2.0000     -16.821833      -457.7454
   2   2.0000     -13.628237      -370.8432
   3   2.0000     -13.628237      -370.8432
   4   2.0000     -13.628237      -370.8432
   5   2.0000      -2.245225       -61.0957
   6   2.0000      -1.340659       -36.4812
   7   2.0000      -1.340659       -36.4812
   8   2.0000      -1.340659       -36.4812
   9   2.0000      -0.195516        -5.3203
  10   0.0000       0.024047         0.6543
  11   0.0000       0.024047         0.6543
  12   0.0000       0.024047         0.6543
  13   0.0000       0.121161         3.2970
  14   0.0000       0.125969         3.4278

E(0)                                       ...   -676.745800952
E(0)                                       ...   -676.745800952
E(CORR)                                    ...     -0.221780383
E(TOT)                                     ...   -676.967581335
E(CCSD(T))                                 ...   -676.972124259

MULLIKEN ATOMIC CHARGES
-----------------------
   0 Ca:   -0.000000
Sum of atomic charges:   -0.0000000

LOEWDIN ATOMIC CHARGES
----------------------
   0 Ca:   -0.000000

FINAL SINGLE POINT ENERGY      -676.972124258882

DIPOLE MOMENT
-------------
                                X             Y             Z
Electronic contribution:     -0.00000      -0.00000      -0.00000
Nuclear contribution   :      0.00000       0.00000       0.00000
                        -----------------------------------------
Total Dipole Moment    :     -0.00000      -0.00000      -0.00000
                        -----------------------------------------
Magnitude (a.u.)       :      0.00000
Magnitude (Debye)      :      0.00000

Rotational constants in cm-1:     0.000000     0.000000     0.000000
Rotational constants in MHz :     0.000000     0.000000     0.000000

                             ****ORCA TERMINATED NORMALLY****
TOTAL RUN TIME: 0 days 0 hours 0 minutes 4 seconds 592 msec
