                         Program Version 4.2.0 -  RELEASE  -
|  1> #
|  2> # 21_Sc CCSD(T)/Def2-TZVP
|  3> #
|  4> ! CCSD(T) Def2-TZVP tightscf
|  5>
|  6> *xyz 0 2
|  7>  Sc 0.0 0.0 0.0
|  8> *
|  9>
| 10> %maxcore 5000
| 11>
| 12> %pal
| 13> nprocs 24
| 14> end
| 15>
| 16>
| 17>                          ****END OF INPUT****

CARTESIAN COORDINATES (ANGSTROEM)
---------------------------------
  Sc     0.000000    0.000000    0.000000

 Total Charge           Charge          ....    0
 Multiplicity           Mult            ....    2
 Number of Electrons    NEL             ....   21
 Basis Dimension        Dim             ....   45

ORBITAL ENERGIES
----------------
                 SPIN UP ORBITALS
  NO   OCC          E(Eh)            E(eV)
   0   1.0000    -165.898354     -4514.3237
   1   1.0000     -19.086076      -519.3585
   2   1.0000     -15.675505      -426.5522
   3   1.0000     -15.672578      -426.4725
   4   1.0000     -15.672578      -426.4725
   5   1.0000      -2.594267       -70.5936
   6   1.0000      -1.620254       -44.0894
   7   1.0000      -1.620254       -44.0894
   8   1.0000      -1.584923       -43.1279
   9   1.0000      -0.347984        -9.4691
  10   1.0000      -0.216296        -5.8857
  11   0.0000       0.092238         2.5099
  12   0.0000       0.092238         2.5099
  13   0.0000       0.092282         2.5111
  14   0.0000       0.094041         2.5590
  15   0.0000       0.094729         2.5777

                 SPIN DOWN ORBITALS
  NO   OCC          E(Eh)            E(eV)
   0   1.0000    -165.898443     -4514.3261
   1   1.0000     -19.073416      -519.0140
   2   1.0000     -15.673001      -426.4840
   3   1.0000     -15.654897      -425.9914
   4   1.0000     -15.654897      -425.9914
   5   1.0000      -2.540220       -69.1229
   6   1.0000      -1.576066       -42.8869
   7   1.0000      -1.522668       -41.4339
   8   1.0000      -1.522668       -41.4339
   9   1.0000      -0.204701        -5.5702
  10   0.0000       0.089688         2.4405
  11   0.0000       0.096514         2.6263
  12   0.0000       0.098558         2.6819
  13   0.0000       0.098558         2.6819
  14   0.0000       0.103260         2.8098

E(0)                                       ...   -759.724439438
E(0)                                       ...   -759.724439438
E(CORR)                                    ...     -0.246762925
E(TOT)                                     ...   -759.971202363
E(CCSD(T))                                 ...   -759.978035495

MULLIKEN ATOMIC CHARGES AND SPIN DENSITIES
------------------------------------------
   0 Sc:   -0.000000    1.000000
Sum of atomic charges       :   -0.0000000

LOEWDIN ATOMIC CHARGES AND SPIN DENSITIES
-----------------------------------------
   0 Sc:   -0.000000    1.000000

FINAL SINGLE POINT ENERGY      -759.978035495457

DIPOLE MOMENT
-------------
                                X             Y             Z
Electronic contribution:     -0.00000      -0.00000       0.00000
Nuclear contribution   :      0.00000       0.00000       0.00000
                        -----------------------------------------
Total Dipole Moment    :     -0.00000      -0.00000       0.00000
                        -----------------------------------------
Magnitude (a.u.)       :      0.00000
Magnitude (Debye)      :      0.00000

Rotational constants in cm-1:     0.000000     0.000000     0.000000
Rotational constants in MHz :     0.000000     0.000000     0.000000

                             ****ORCA TERMINATED NORMALLY****
TOTAL RUN TIME: 0 days 0 hours 0 minutes 12 seconds 696 msec
