                         Program Version 4.2.0 -  RELEASE  -
|  1> #
|  2> # 23_V CCSD(T)/Def2-TZVP
|  3> #
|  4> ! CCSD(T) Def2-TZVP tightscf veryslowconv kdiis
|  5>
|  6> *xyz 0 4
|  7>  V 0.0 0.0 0.0
|  8> *
|  9>
| 10> %maxcore 5000
| 11>
| 12> %pal
| 13> nprocs 24
| 14> end
| 15>
| 16> %scf
| 17> maxiter 200
| 18> diismaxeq 40
| 19> directresetfreq 1
| 20> end
| 21>
| 22> %mdci
| 23> maxdiis 25
| 24> maxiter 100
| 25> end
| 26>
| 27>
| 28>                          ****END OF INPUT****

CARTESIAN COORDINATES (ANGSTROEM)
---------------------------------
  V      0.000000    0.000000    0.000000

 Total Charge           Charge          ....    0
 Multiplicity           Mult            ....    4
 Number of Electrons    NEL             ....   23
 Basis Dimension        Dim             ....   45

ORBITAL ENERGIES
----------------
                 SPIN UP ORBITALS
  NO   OCC          E(Eh)            E(eV)
   0   1.0000    -201.342678     -5478.8128
   1   1.0000     -23.712363      -645.2462
   2   1.0000     -19.866240      -540.5879
   3   1.0000     -19.866240      -540.5879
   4   1.0000     -19.864820      -540.5492
   5   1.0000      -3.110039       -84.6285
   6   1.0000      -2.030563       -55.2544
   7   1.0000      -1.973306       -53.6964
   8   1.0000      -1.973300       -53.6962
   9   1.0000      -0.342671        -9.3245
  10   1.0000      -0.326416        -8.8822
  11   1.0000      -0.326410        -8.8821
  12   1.0000      -0.263622        -7.1735
  13   0.0000       0.007171         0.1951
  14   0.0000       0.164591         4.4788
  15   0.0000       0.169097         4.6014
  16   0.0000       0.174022         4.7354
  17   0.0000       0.174023         4.7354

                 SPIN DOWN ORBITALS
  NO   OCC          E(Eh)            E(eV)
   0   1.0000    -201.342687     -5478.8130
   1   1.0000     -23.651664      -643.5945
   2   1.0000     -19.811850      -539.1078
   3   1.0000     -19.811847      -539.1078
   4   1.0000     -19.792239      -538.5742
   5   1.0000      -2.885194       -78.5101
   6   1.0000      -1.733505       -47.1711
   7   1.0000      -1.733496       -47.1708
   8   1.0000      -1.675496       -45.5926
   9   1.0000      -0.026160        -0.7118
  10   0.0000       0.006442         0.1753
  11   0.0000       0.166366         4.5270
  12   0.0000       0.170881         4.6499
  13   0.0000       0.170883         4.6500
  14   0.0000       0.180047         4.8993

E(0)                                       ...   -942.670874807
E(0)                                       ...   -942.670874807
E(CORR)                                    ...     -0.340187373
E(TOT)                                     ...   -943.011062180
E(CCSD(T))                                 ...   -943.071761654

MULLIKEN ATOMIC CHARGES AND SPIN DENSITIES
------------------------------------------
   0 V :   -0.000000    3.000000
Sum of atomic charges       :   -0.0000000

LOEWDIN ATOMIC CHARGES AND SPIN DENSITIES
-----------------------------------------
   0 V :   -0.000000    3.000000

FINAL SINGLE POINT ENERGY      -943.071761654383

DIPOLE MOMENT
-------------
                                X             Y             Z
Electronic contribution:     -0.00000      -0.00000       0.00000
Nuclear contribution   :      0.00000       0.00000       0.00000
                        -----------------------------------------
Total Dipole Moment    :     -0.00000      -0.00000       0.00000
                        -----------------------------------------
Magnitude (a.u.)       :      0.00000
Magnitude (Debye)      :      0.00000

Rotational constants in cm-1:     0.000000     0.000000     0.000000
Rotational constants in MHz :     0.000000     0.000000     0.000000

                             ****ORCA TERMINATED NORMALLY****
TOTAL RUN TIME: 0 days 0 hours 0 minutes 12 seconds 414 msec
