                         Program Version 4.2.0 -  RELEASE  -
|  1> #
|  2> # 24_Cr CCSD(T)/Def2-TZVP
|  3> #
|  4> ! CCSD(T) Def2-TZVP tightscf
|  5>
|  6> *xyz 0 7
|  7>  Cr 0.0 0.0 0.0
|  8> *
|  9>
| 10> %maxcore 5000
| 11>
| 12> %pal
| 13> nprocs 24
| 14> end
| 15>
| 16>
| 17>                          ****END OF INPUT****

CARTESIAN COORDINATES (ANGSTROEM)
---------------------------------
  Cr     0.000000    0.000000    0.000000

 Total Charge           Charge          ....    0
 Multiplicity           Mult            ....    7
 Number of Electrons    NEL             ....   24
 Basis Dimension        Dim             ....   45

ORBITAL ENERGIES
----------------
                 SPIN UP ORBITALS
  NO   OCC          E(Eh)            E(eV)
   0   1.0000    -220.387599     -5997.0514
   1   1.0000     -26.261379      -714.6085
   2   1.0000     -22.190189      -603.8257
   3   1.0000     -22.190189      -603.8257
   4   1.0000     -22.190189      -603.8257
   5   1.0000      -3.459965       -94.1504
   6   1.0000      -2.262774       -61.5732
   7   1.0000      -2.262774       -61.5732
   8   1.0000      -2.262774       -61.5732
   9   1.0000      -0.373690       -10.1686
  10   1.0000      -0.373690       -10.1686
  11   1.0000      -0.373690       -10.1686
  12   1.0000      -0.373690       -10.1686
  13   1.0000      -0.373690       -10.1686
  14   1.0000      -0.222516        -6.0550
  15   0.0000       0.147262         4.0072
  16   0.0000       0.147262         4.0072
  17   0.0000       0.147262         4.0072
  18   0.0000       0.158004         4.2995
  19   0.0000       0.158004         4.2995

                 SPIN DOWN ORBITALS
  NO   OCC          E(Eh)            E(eV)
   0   1.0000    -220.385426     -5996.9923
   1   1.0000     -26.159993      -711.8496
   2   1.0000     -22.091538      -601.1413
   3   1.0000     -22.091538      -601.1413
   4   1.0000     -22.091538      -601.1413
   5   1.0000      -3.112400       -84.6927
   6   1.0000      -1.841102       -50.0989
   7   1.0000      -1.841102       -50.0989
   8   1.0000      -1.841102       -50.0989
   9   0.0000       0.031082         0.8458
  10   0.0000       0.158520         4.3135
  11   0.0000       0.158520         4.3135
  12   0.0000       0.158520         4.3135
  13   0.0000       0.158520         4.3135

E(0)                                       ...  -1043.334521316
E(0)                                       ...  -1043.334521316
E(CORR)                                    ...     -0.324870873
E(TOT)                                     ...  -1043.659392190
E(CCSD(T))                                 ...  -1043.665568322

MULLIKEN ATOMIC CHARGES AND SPIN DENSITIES
------------------------------------------
   0 Cr:   -0.000000    6.000000
Sum of atomic charges       :   -0.0000000

LOEWDIN ATOMIC CHARGES AND SPIN DENSITIES
-----------------------------------------
   0 Cr:   -0.000000    6.000000

FINAL SINGLE POINT ENERGY     -1043.665568321573

DIPOLE MOMENT
-------------
                                X             Y             Z
Electronic contribution:     -0.00000      -0.00000       0.00000
Nuclear contribution   :      0.00000       0.00000       0.00000
                        -----------------------------------------
Total Dipole Moment    :     -0.00000      -0.00000       0.00000
                        -----------------------------------------
Magnitude (a.u.)       :      0.00000
Magnitude (Debye)      :      0.00000

Rotational constants in cm-1:     0.000000     0.000000     0.000000
Rotational constants in MHz :     0.000000     0.000000     0.000000

                             ****ORCA TERMINATED NORMALLY****
TOTAL RUN TIME: 0 days 0 hours 0 minutes 15 seconds 989 msec
