                         Program Version 4.2.0 -  RELEASE  -
|  1> #
|  2> # 25_Mn CCSD(T)/Def2-TZVP
|  3> #
|  4> ! CCSD(T) Def2-TZVP tightscf
|  5>
|  6> *xyz 0 6
|  7>  Mn 0.0 0.0 0.0
|  8> *
|  9>
| 10> %maxcore 5000
| 11>
| 12> %pal
| 13> nprocs 24
| 14> end
| 15>
| 16>
| 17>                          ****END OF INPUT****

CARTESIAN COORDINATES (ANGSTROEM)
---------------------------------
  Mn     0.000000    0.000000    0.000000

 Total Charge           Charge          ....    0
 Multiplicity           Mult            ....    6
 Number of Electrons    NEL             ....   25
 Basis Dimension        Dim             ....   45

ORBITAL ENERGIES
----------------
                 SPIN UP ORBITALS
  NO   OCC          E(Eh)            E(eV)
   0   1.0000    -240.365965     -6540.6904
   1   1.0000     -28.966706      -788.2241
   2   1.0000     -24.689598      -671.8381
   3   1.0000     -24.663677      -671.1328
   4   1.0000     -24.663677      -671.1328
   5   1.0000      -3.784895      -102.9922
   6   1.0000      -2.535536       -68.9954
   7   1.0000      -2.472109       -67.2695
   8   1.0000      -2.472108       -67.2695
   9   1.0000      -0.448051       -12.1921
  10   1.0000      -0.440049       -11.9743
  11   1.0000      -0.440049       -11.9743
  12   1.0000      -0.414208       -11.2712
  13   1.0000      -0.372865       -10.1462
  14   1.0000      -0.226568        -6.1652
  15   0.0000       0.149702         4.0736
  16   0.0000       0.166598         4.5334
  17   0.0000       0.166598         4.5334
  18   0.0000       0.200350         5.4518
  19   0.0000       0.255797         6.9606

                 SPIN DOWN ORBITALS
  NO   OCC          E(Eh)            E(eV)
   0   1.0000    -240.362878     -6540.6064
   1   1.0000     -28.866357      -785.4935
   2   1.0000     -24.575738      -668.7398
   3   1.0000     -24.574782      -668.7138
   4   1.0000     -24.574782      -668.7138
   5   1.0000      -3.468092       -94.3716
   6   1.0000      -2.127831       -57.9012
   7   1.0000      -2.127831       -57.9012
   8   1.0000      -2.085023       -56.7364
   9   1.0000      -0.223814        -6.0903
  10   0.0000       0.029356         0.7988
  11   0.0000       0.234988         6.3944
  12   0.0000       0.237525         6.4634
  13   0.0000       0.237525         6.4634
  14   0.0000       0.244576         6.6552

E(0)                                       ...  -1149.728893093
E(0)                                       ...  -1149.728893093
E(CORR)                                    ...     -0.380481098
E(TOT)                                     ...  -1150.109374191
E(CCSD(T))                                 ...  -1150.118716607

MULLIKEN ATOMIC CHARGES AND SPIN DENSITIES
------------------------------------------
   0 Mn:   -0.000000    5.000000
Sum of atomic charges       :   -0.0000000

LOEWDIN ATOMIC CHARGES AND SPIN DENSITIES
-----------------------------------------
   0 Mn:   -0.000000    5.000000

FINAL SINGLE POINT ENERGY     -1150.118716607281

DIPOLE MOMENT
-------------
                                X             Y             Z
Electronic contribution:     -0.00000       0.00000       0.00000
Nuclear contribution   :      0.00000       0.00000       0.00000
                        -----------------------------------------
Total Dipole Moment    :     -0.00000       0.00000       0.00000
                        -----------------------------------------
Magnitude (a.u.)       :      0.00000
Magnitude (Debye)      :      0.00000

Rotational constants in cm-1:     0.000000     0.000000     0.000000
Rotational constants in MHz :     0.000000     0.000000     0.000000

                             ****ORCA TERMINATED NORMALLY****
TOTAL RUN TIME: 0 days 0 hours 0 minutes 21 seconds 393 msec
