                         Program Version 4.2.0 -  RELEASE  -
|  1> #
|  2> # 26_Fe CCSD(T)/Def2-TZVP
|  3> #
|  4> ! CCSD(T) Def2-TZVP tightscf
|  5>
|  6> *xyz 0 5
|  7>  Fe 0.0 0.0 0.0
|  8> *
|  9>
| 10> %maxcore 5000
| 11>
| 12> %pal
| 13> nprocs 24
| 14> end
| 15>
| 16>
| 17>                          ****END OF INPUT****

CARTESIAN COORDINATES (ANGSTROEM)
---------------------------------
  Fe     0.000000    0.000000    0.000000

 Total Charge           Charge          ....    0
 Multiplicity           Mult            ....    5
 Number of Electrons    NEL             ....   26
 Basis Dimension        Dim             ....   45

ORBITAL ENERGIES
----------------
                 SPIN UP ORBITALS
  NO   OCC          E(Eh)            E(eV)
   0   1.0000    -261.185800     -7107.2270
   1   1.0000     -31.765366      -864.3795
   2   1.0000     -27.256561      -741.6887
   3   1.0000     -27.256561      -741.6887
   4   1.0000     -27.225557      -740.8451
   5   1.0000      -4.092179      -111.3539
   6   1.0000      -2.728328       -74.2416
   7   1.0000      -2.728328       -74.2416
   8   1.0000      -2.656479       -72.2865
   9   1.0000      -0.488633       -13.2964
  10   1.0000      -0.488633       -13.2964
  11   1.0000      -0.449141       -12.2217
  12   1.0000      -0.413549       -11.2532
  13   1.0000      -0.413549       -11.2532
  14   1.0000      -0.229565        -6.2468
  15   0.0000       0.169218         4.6047
  16   0.0000       0.169218         4.6047
  17   0.0000       0.185134         5.0377
  18   0.0000       0.219988         5.9862
  19   0.0000       0.269798         7.3416

                 SPIN DOWN ORBITALS
  NO   OCC          E(Eh)            E(eV)
   0   1.0000    -261.182485     -7107.1367
   1   1.0000     -31.677901      -861.9995
   2   1.0000     -27.162227      -739.1218
   3   1.0000     -27.162227      -739.1218
   4   1.0000     -27.161811      -739.1105
   5   1.0000      -3.833411      -104.3124
   6   1.0000      -2.429787       -66.1179
   7   1.0000      -2.380916       -64.7880
   8   1.0000      -2.380916       -64.7880
   9   1.0000      -0.303085        -8.2474
  10   1.0000      -0.303085        -8.2474
  11   0.0000       0.027922         0.7598
  12   0.0000       0.246335         6.7031
  13   0.0000       0.246335         6.7031
  14   0.0000       0.256046         6.9674
  15   0.0000       0.256046         6.9674

E(0)                                       ...  -1262.345869823
E(0)                                       ...  -1262.345869823
E(CORR)                                    ...     -0.431398258
E(TOT)                                     ...  -1262.777268081
E(CCSD(T))                                 ...  -1262.789823666

MULLIKEN ATOMIC CHARGES AND SPIN DENSITIES
------------------------------------------
   0 Fe:    0.000000    4.000000
Sum of atomic charges       :    0.0000000

LOEWDIN ATOMIC CHARGES AND SPIN DENSITIES
-----------------------------------------
   0 Fe:   -0.000000    4.000000

FINAL SINGLE POINT ENERGY     -1262.789823665716

DIPOLE MOMENT
-------------
                                X             Y             Z
Electronic contribution:     -0.00000       0.00000       0.00000
Nuclear contribution   :      0.00000       0.00000       0.00000
                        -----------------------------------------
Total Dipole Moment    :     -0.00000       0.00000       0.00000
                        -----------------------------------------
Magnitude (a.u.)       :      0.00000
Magnitude (Debye)      :      0.00000

Rotational constants in cm-1:     0.000000     0.000000     0.000000
Rotational constants in MHz :     0.000000     0.000000     0.000000

                             ****ORCA TERMINATED NORMALLY****
TOTAL RUN TIME: 0 days 0 hours 2 minutes 17 seconds 483 msec
