                         Program Version 4.2.0 -  RELEASE  -
|  1> #
|  2> # 28_Ni CCSD(T)/Def2-TZVP
|  3> #
|  4> ! CCSD(T) Def2-TZVP tightscf
|  5>
|  6> *xyz 0 3
|  7>  Ni 0.0 0.0 0.0
|  8> *
|  9>
| 10> %maxcore 5000
| 11>
| 12> %pal
| 13> nprocs 24
| 14> end
| 15>
| 16>
| 17>                          ****END OF INPUT****

CARTESIAN COORDINATES (ANGSTROEM)
---------------------------------
  Ni     0.000000    0.000000    0.000000

 Total Charge           Charge          ....    0
 Multiplicity           Mult            ....    3
 Number of Electrons    NEL             ....   28
 Basis Dimension        Dim             ....   45

ORBITAL ENERGIES
----------------
                 SPIN UP ORBITALS
  NO   OCC          E(Eh)            E(eV)
   0   1.0000    -305.404006     -8310.4655
   1   1.0000     -37.694067     -1025.7077
   2   1.0000     -32.745703      -891.0559
   3   1.0000     -32.713596      -890.1822
   4   1.0000     -32.704557      -889.9362
   5   1.0000      -4.706574      -128.0724
   6   1.0000      -3.172371       -86.3246
   7   1.0000      -3.102457       -84.4221
   8   1.0000      -3.082995       -83.8926
   9   1.0000      -0.547541       -14.8994
  10   1.0000      -0.487609       -13.2685
  11   1.0000      -0.479829       -13.0568
  12   1.0000      -0.451898       -12.2968
  13   1.0000      -0.451348       -12.2818
  14   1.0000      -0.236375        -6.4321
  15   0.0000       0.185550         5.0491
  16   0.0000       0.198833         5.4105
  17   0.0000       0.202507         5.5105
  18   0.0000       0.255298         6.9470
  19   0.0000       0.313584         8.5331

                 SPIN DOWN ORBITALS
  NO   OCC          E(Eh)            E(eV)
   0   1.0000    -305.401421     -8310.3952
   1   1.0000     -37.657200     -1024.7045
   2   1.0000     -32.687447      -889.4707
   3   1.0000     -32.687279      -889.4661
   4   1.0000     -32.686877      -889.4551
   5   1.0000      -4.606239      -125.3421
   6   1.0000      -3.028587       -82.4120
   7   1.0000      -3.016015       -82.0700
   8   1.0000      -2.970557       -80.8330
   9   1.0000      -0.462809       -12.5937
  10   1.0000      -0.449081       -12.2201
  11   1.0000      -0.399960       -10.8835
  12   1.0000      -0.399106       -10.8602
  13   0.0000       0.025879         0.7042
  14   0.0000       0.265195         7.2163
  15   0.0000       0.268188         7.2978
  16   0.0000       0.269061         7.3215
  17   0.0000       0.275389         7.4937

E(0)                                       ...  -1506.795794923
E(0)                                       ...  -1506.795794923
E(CORR)                                    ...     -0.531223025
E(TOT)                                     ...  -1507.327017949
E(CCSD(T))                                 ...  -1507.340712923

MULLIKEN ATOMIC CHARGES AND SPIN DENSITIES
------------------------------------------
   0 Ni:   -0.000000    2.000000
Sum of atomic charges       :   -0.0000000

LOEWDIN ATOMIC CHARGES AND SPIN DENSITIES
-----------------------------------------
   0 Ni:   -0.000000    2.000000

FINAL SINGLE POINT ENERGY     -1507.340712922591

DIPOLE MOMENT
-------------
                                X             Y             Z
Electronic contribution:     -0.00000      -0.00000      -0.00000
Nuclear contribution   :      0.00000       0.00000       0.00000
                        -----------------------------------------
Total Dipole Moment    :     -0.00000      -0.00000      -0.00000
                        -----------------------------------------
Magnitude (a.u.)       :      0.00000
Magnitude (Debye)      :      0.00000

Rotational constants in cm-1:     0.000000     0.000000     0.000000
Rotational constants in MHz :     0.000000     0.000000     0.000000

                             ****ORCA TERMINATED NORMALLY****
TOTAL RUN TIME: 0 days 0 hours 1 minutes 56 seconds 838 msec
