                         Program Version 4.2.0 -  RELEASE  -
|  1> #
|  2> # 29_Cu CCSD(T)/Def2-TZVP
|  3> #
|  4> ! CCSD(T) Def2-TZVP tightscf
|  5>
|  6> *xyz 0 2
|  7>  Cu 0.0 0.0 0.0
|  8> *
|  9>
| 10> %maxcore 5000
| 11>
| 12> %pal
| 13> nprocs 24
| 14> end
| 15>
| 16>
| 17>                          ****END OF INPUT****

CARTESIAN COORDINATES (ANGSTROEM)
---------------------------------
  Cu     0.000000    0.000000    0.000000

 Total Charge           Charge          ....    0
 Multiplicity           Mult            ....    2
 Number of Electrons    NEL             ....   29
 Basis Dimension        Dim             ....   45

ORBITAL ENERGIES
----------------
                 SPIN UP ORBITALS
  NO   OCC          E(Eh)            E(eV)
   0   1.0000    -328.796099     -8946.9967
   1   1.0000     -40.821952     -1110.8218
   2   1.0000     -35.619979      -969.2689
   3   1.0000     -35.619979      -969.2689
   4   1.0000     -35.619979      -969.2689
   5   1.0000      -5.014678      -136.4563
   6   1.0000      -3.324566       -90.4660
   7   1.0000      -3.324566       -90.4660
   8   1.0000      -3.324566       -90.4660
   9   1.0000      -0.489630       -13.3235
  10   1.0000      -0.489630       -13.3235
  11   1.0000      -0.489630       -13.3235
  12   1.0000      -0.489630       -13.3235
  13   1.0000      -0.489630       -13.3235
  14   1.0000      -0.240251        -6.5376
  15   0.0000       0.180884         4.9221
  16   0.0000       0.208953         5.6859
  17   0.0000       0.208953         5.6859
  18   0.0000       0.208953         5.6859
  19   0.0000       0.258858         7.0439

                 SPIN DOWN ORBITALS
  NO   OCC          E(Eh)            E(eV)
   0   1.0000    -328.794420     -8946.9510
   1   1.0000     -40.822844     -1110.8461
   2   1.0000     -35.622716      -969.3434
   3   1.0000     -35.622716      -969.3434
   4   1.0000     -35.622716      -969.3434
   5   1.0000      -5.013927      -136.4359
   6   1.0000      -3.329774       -90.6078
   7   1.0000      -3.329774       -90.6078
   8   1.0000      -3.329774       -90.6078
   9   1.0000      -0.493861       -13.4386
  10   1.0000      -0.493861       -13.4386
  11   1.0000      -0.493861       -13.4386
  12   1.0000      -0.493861       -13.4386
  13   1.0000      -0.493861       -13.4386
  14   0.0000       0.018815         0.5120
  15   0.0000       0.231365         6.2958
  16   0.0000       0.274825         7.4784
  17   0.0000       0.274825         7.4784
  18   0.0000       0.274825         7.4784

E(0)                                       ...  -1638.923080804
E(0)                                       ...  -1638.923080804
E(CORR)                                    ...     -0.561403499
E(TOT)                                     ...  -1639.484484303
E(CCSD(T))                                 ...  -1639.498202540

MULLIKEN ATOMIC CHARGES AND SPIN DENSITIES
------------------------------------------
   0 Cu:   -0.000000    1.000000
Sum of atomic charges       :   -0.0000000

LOEWDIN ATOMIC CHARGES AND SPIN DENSITIES
-----------------------------------------
   0 Cu:   -0.000000    1.000000

FINAL SINGLE POINT ENERGY     -1639.498202540092

DIPOLE MOMENT
-------------
                                X             Y             Z
Electronic contribution:     -0.00000       0.00000       0.00000
Nuclear contribution   :      0.00000       0.00000       0.00000
                        -----------------------------------------
Total Dipole Moment    :     -0.00000       0.00000       0.00000
                        -----------------------------------------
Magnitude (a.u.)       :      0.00000
Magnitude (Debye)      :      0.00000

Rotational constants in cm-1:     0.000000     0.000000     0.000000
Rotational constants in MHz :     0.000000     0.000000     0.000000

                             ****ORCA TERMINATED NORMALLY****
TOTAL RUN TIME: 0 days 0 hours 0 minutes 10 seconds 875 msec
