                         Program Version 4.2.0 -  RELEASE  -
|  1> #
|  2> # 30_Zn CCSD(T)/Def2-TZVP
|  3> #
|  4> ! CCSD(T) Def2-TZVP tightscf
|  5>
|  6> *xyz 0 1
|  7>  Zn 0.0 0.0 0.0
|  8> *
|  9>
| 10> %maxcore 5000
| 11>
| 12> %pal
| 13> nprocs 24
| 14> end
| 15>
| 16>
| 17>                          ****END OF INPUT****

CARTESIAN COORDINATES (ANGSTROEM)
---------------------------------
  Zn     0.000000    0.000000    0.000000

 Total Charge           Charge          ....    0
 Multiplicity           Mult            ....    1
 Number of Electrons    NEL             ....   30
 Basis Dimension        Dim             ....   48

ORBITAL ENERGIES
----------------

  NO   OCC          E(Eh)            E(eV)
   0   2.0000    -353.305688     -9613.9365
   1   2.0000     -44.363993     -1207.2056
   2   2.0000     -38.927118     -1059.2607
   3   2.0000     -38.927118     -1059.2607
   4   2.0000     -38.927118     -1059.2607
   5   2.0000      -5.639299      -153.4531
   6   2.0000      -3.840975      -104.5182
   7   2.0000      -3.840975      -104.5182
   8   2.0000      -3.840975      -104.5182
   9   2.0000      -0.782701       -21.2984
  10   2.0000      -0.782701       -21.2984
  11   2.0000      -0.782701       -21.2984
  12   2.0000      -0.782701       -21.2984
  13   2.0000      -0.782701       -21.2984
  14   2.0000      -0.292746        -7.9660
  15   0.0000       0.056620         1.5407
  16   0.0000       0.056620         1.5407
  17   0.0000       0.056620         1.5407
  18   0.0000       0.241688         6.5767
  19   0.0000       0.331373         9.0171

E(0)                                       ...  -1777.807066272
E(0)                                       ...  -1777.807066272
E(CORR)                                    ...     -0.581656024
E(TOT)                                     ...  -1778.388722295
E(CCSD(T))                                 ...  -1778.400377638

MULLIKEN ATOMIC CHARGES
-----------------------
   0 Zn:   -0.000000
Sum of atomic charges:   -0.0000000

LOEWDIN ATOMIC CHARGES
----------------------
   0 Zn:   -0.000000

FINAL SINGLE POINT ENERGY     -1778.400377637912

DIPOLE MOMENT
-------------
                                X             Y             Z
Electronic contribution:      0.00000      -0.00000       0.00000
Nuclear contribution   :      0.00000       0.00000       0.00000
                        -----------------------------------------
Total Dipole Moment    :      0.00000      -0.00000       0.00000
                        -----------------------------------------
Magnitude (a.u.)       :      0.00000
Magnitude (Debye)      :      0.00000

Rotational constants in cm-1:     0.000000     0.000000     0.000000
Rotational constants in MHz :     0.000000     0.000000     0.000000

                             ****ORCA TERMINATED NORMALLY****
TOTAL RUN TIME: 0 days 0 hours 0 minutes 6 seconds 585 msec
