                         Program Version 4.2.0 -  RELEASE  -
|  1> #
|  2> # 31_Ga CCSD(T)/Def2-TZVP
|  3> #
|  4> ! CCSD(T) Def2-TZVP tightscf
|  5>
|  6> *xyz 0 2
|  7>  Ga 0.0 0.0 0.0
|  8> *
|  9>
| 10> %maxcore 5000
| 11>
| 12> %pal
| 13> nprocs 24
| 14> end
| 15>
| 16>
| 17>                          ****END OF INPUT****

CARTESIAN COORDINATES (ANGSTROEM)
---------------------------------
  Ga     0.000000    0.000000    0.000000

 Total Charge           Charge          ....    0
 Multiplicity           Mult            ....    2
 Number of Electrons    NEL             ....   31
 Basis Dimension        Dim             ....   48

ORBITAL ENERGIES
----------------
                 SPIN UP ORBITALS
  NO   OCC          E(Eh)            E(eV)
   0   1.0000    -378.815536    -10308.0948
   1   1.0000     -48.166443     -1310.6755
   2   1.0000     -42.492781     -1156.2873
   3   1.0000     -42.492629     -1156.2832
   4   1.0000     -42.492629     -1156.2832
   5   1.0000      -6.393062      -173.9641
   6   1.0000      -4.481826      -121.9567
   7   1.0000      -4.481826      -121.9567
   8   1.0000      -4.481447      -121.9464
   9   1.0000      -1.194672       -32.5087
  10   1.0000      -1.194672       -32.5087
  11   1.0000      -1.188769       -32.3481
  12   1.0000      -1.188769       -32.3481
  13   1.0000      -1.186955       -32.2987
  14   1.0000      -0.455323       -12.3900
  15   1.0000      -0.214570        -5.8388
  16   0.0000       0.029094         0.7917
  17   0.0000       0.029094         0.7917
  18   0.0000       0.274135         7.4596
  19   0.0000       0.276797         7.5320
  20   0.0000       0.276797         7.5320

                 SPIN DOWN ORBITALS
  NO   OCC          E(Eh)            E(eV)
   0   1.0000    -378.814402    -10308.0639
   1   1.0000     -48.166715     -1310.6829
   2   1.0000     -42.492891     -1156.2903
   3   1.0000     -42.492891     -1156.2903
   4   1.0000     -42.490143     -1156.2156
   5   1.0000      -6.392023      -173.9358
   6   1.0000      -4.483044      -121.9898
   7   1.0000      -4.483044      -121.9898
   8   1.0000      -4.472479      -121.7023
   9   1.0000      -1.195630       -32.5347
  10   1.0000      -1.195630       -32.5347
  11   1.0000      -1.187352       -32.3095
  12   1.0000      -1.187352       -32.3095
  13   1.0000      -1.184774       -32.2393
  14   1.0000      -0.393212       -10.6998
  15   0.0000       0.039254         1.0682
  16   0.0000       0.039254         1.0682
  17   0.0000       0.077217         2.1012
  18   0.0000       0.292045         7.9469
  19   0.0000       0.292045         7.9469

E(0)                                       ...  -1923.223491206
E(0)                                       ...  -1923.223491206
E(CORR)                                    ...     -0.180959510
E(TOT)                                     ...  -1923.404450716
E(CCSD(T))                                 ...  -1923.411865197

MULLIKEN ATOMIC CHARGES AND SPIN DENSITIES
------------------------------------------
   0 Ga:   -0.000000    1.000000
Sum of atomic charges       :   -0.0000000

LOEWDIN ATOMIC CHARGES AND SPIN DENSITIES
-----------------------------------------
   0 Ga:   -0.000000    1.000000

FINAL SINGLE POINT ENERGY     -1923.411865197006

DIPOLE MOMENT
-------------
                                X             Y             Z
Electronic contribution:     -0.00000      -0.00000       0.00000
Nuclear contribution   :      0.00000       0.00000       0.00000
                        -----------------------------------------
Total Dipole Moment    :     -0.00000      -0.00000       0.00000
                        -----------------------------------------
Magnitude (a.u.)       :      0.00000
Magnitude (Debye)      :      0.00000

Rotational constants in cm-1:     0.000000     0.000000     0.000000
Rotational constants in MHz :     0.000000     0.000000     0.000000

                             ****ORCA TERMINATED NORMALLY****
TOTAL RUN TIME: 0 days 0 hours 0 minutes 21 seconds 761 msec
