                         Program Version 4.2.0 -  RELEASE  -
|  1> #
|  2> # 33_As CCSD(T)/Def2-TZVP
|  3> #
|  4> ! CCSD(T) Def2-TZVP tightscf
|  5>
|  6> *xyz 0 4
|  7>  As 0.0 0.0 0.0
|  8> *
|  9>
| 10> %maxcore 5000
| 11>
| 12> %pal
| 13> nprocs 24
| 14> end
| 15>
| 16>
| 17>                          ****END OF INPUT****

CARTESIAN COORDINATES (ANGSTROEM)
---------------------------------
  As     0.000000    0.000000    0.000000

 Total Charge           Charge          ....    0
 Multiplicity           Mult            ....    4
 Number of Electrons    NEL             ....   33
 Basis Dimension        Dim             ....   48

ORBITAL ENERGIES
----------------
                 SPIN UP ORBITALS
  NO   OCC          E(Eh)            E(eV)
   0   1.0000    -432.586531    -11771.2779
   1   1.0000     -56.309787     -1532.2672
   2   1.0000     -50.156116     -1364.8173
   3   1.0000     -50.156116     -1364.8173
   4   1.0000     -50.156116     -1364.8173
   5   1.0000      -8.035517      -218.6575
   6   1.0000      -5.889938      -160.2734
   7   1.0000      -5.889938      -160.2734
   8   1.0000      -5.889938      -160.2734
   9   1.0000      -2.115710       -57.5714
  10   1.0000      -2.115710       -57.5714
  11   1.0000      -2.115710       -57.5714
  12   1.0000      -2.115710       -57.5714
  13   1.0000      -2.115710       -57.5714
  14   1.0000      -0.814096       -22.1527
  15   1.0000      -0.368935       -10.0392
  16   1.0000      -0.368935       -10.0392
  17   1.0000      -0.368935       -10.0392
  18   0.0000       0.325918         8.8687
  19   0.0000       0.325918         8.8687
  20   0.0000       0.325918         8.8687
  21   0.0000       0.325918         8.8687
  22   0.0000       0.325918         8.8687

                 SPIN DOWN ORBITALS
  NO   OCC          E(Eh)            E(eV)
   0   1.0000    -432.578655    -11771.0636
   1   1.0000     -56.306912     -1532.1890
   2   1.0000     -50.148144     -1364.6004
   3   1.0000     -50.148144     -1364.6004
   4   1.0000     -50.148144     -1364.6004
   5   1.0000      -8.021157      -218.2668
   6   1.0000      -5.869636      -159.7209
   7   1.0000      -5.869636      -159.7209
   8   1.0000      -5.869636      -159.7209
   9   1.0000      -2.105936       -57.3054
  10   1.0000      -2.105936       -57.3054
  11   1.0000      -2.105936       -57.3054
  12   1.0000      -2.105936       -57.3054
  13   1.0000      -2.105936       -57.3054
  14   1.0000      -0.555125       -15.1057
  15   0.0000       0.051115         1.3909
  16   0.0000       0.051115         1.3909
  17   0.0000       0.051115         1.3909
  18   0.0000       0.421515        11.4700
  19   0.0000       0.421515        11.4700

E(0)                                       ...  -2234.194167555
E(0)                                       ...  -2234.194167555
E(CORR)                                    ...     -0.201549319
E(TOT)                                     ...  -2234.395716874
E(CCSD(T))                                 ...  -2234.402050746

MULLIKEN ATOMIC CHARGES AND SPIN DENSITIES
------------------------------------------
   0 As:    0.000000    3.000000
Sum of atomic charges       :    0.0000000

LOEWDIN ATOMIC CHARGES AND SPIN DENSITIES
-----------------------------------------
   0 As:    0.000000    3.000000

FINAL SINGLE POINT ENERGY     -2234.402050745595

DIPOLE MOMENT
-------------
                                X             Y             Z
Electronic contribution:      0.00000       0.00000      -0.00000
Nuclear contribution   :      0.00000       0.00000       0.00000
                        -----------------------------------------
Total Dipole Moment    :      0.00000       0.00000      -0.00000
                        -----------------------------------------
Magnitude (a.u.)       :      0.00000
Magnitude (Debye)      :      0.00000

Rotational constants in cm-1:     0.000000     0.000000     0.000000
Rotational constants in MHz :     0.000000     0.000000     0.000000

                             ****ORCA TERMINATED NORMALLY****
TOTAL RUN TIME: 0 days 0 hours 0 minutes 11 seconds 103 msec
