                         Program Version 4.2.0 -  RELEASE  -
|  1> #
|  2> # 34_Se CCSD(T)/Def2-TZVP
|  3> #
|  4> ! CCSD(T) Def2-TZVP tightscf
|  5>
|  6> *xyz 0 3
|  7>  Se 0.0 0.0 0.0
|  8> *
|  9>
| 10> %maxcore 5000
| 11>
| 12> %pal
| 13> nprocs 24
| 14> end
| 15>
| 16>
| 17>                          ****END OF INPUT****

CARTESIAN COORDINATES (ANGSTROEM)
---------------------------------
  Se     0.000000    0.000000    0.000000

 Total Charge           Charge          ....    0
 Multiplicity           Mult            ....    3
 Number of Electrons    NEL             ....   34
 Basis Dimension        Dim             ....   48

ORBITAL ENERGIES
----------------
                 SPIN UP ORBITALS
  NO   OCC          E(Eh)            E(eV)
   0   1.0000    -460.865582    -12540.7900
   1   1.0000     -60.667586     -1650.8490
   2   1.0000     -54.271515     -1476.8030
   3   1.0000     -54.271515     -1476.8030
   4   1.0000     -54.265284     -1476.6335
   5   1.0000      -8.936696      -243.1799
   6   1.0000      -6.675697      -181.6550
   7   1.0000      -6.675697      -181.6550
   8   1.0000      -6.655496      -181.1053
   9   1.0000      -2.661187       -72.4146
  10   1.0000      -2.661187       -72.4146
  11   1.0000      -2.646973       -72.0278
  12   1.0000      -2.646973       -72.0278
  13   1.0000      -2.642329       -71.9014
  14   1.0000      -0.934977       -25.4420
  15   1.0000      -0.446974       -12.1628
  16   1.0000      -0.446974       -12.1628
  17   1.0000      -0.383393       -10.4327
  18   0.0000       0.307300         8.3621
  19   0.0000       0.307300         8.3621
  20   0.0000       0.334279         9.0962
  21   0.0000       0.346523         9.4294
  22   0.0000       0.346523         9.4294

                 SPIN DOWN ORBITALS
  NO   OCC          E(Eh)            E(eV)
   0   1.0000    -460.858775    -12540.6048
   1   1.0000     -60.664442     -1650.7634
   2   1.0000     -54.263497     -1476.5848
   3   1.0000     -54.261500     -1476.5305
   4   1.0000     -54.261500     -1476.5305
   5   1.0000      -8.923643      -242.8247
   6   1.0000      -6.652783      -181.0314
   7   1.0000      -6.650306      -180.9640
   8   1.0000      -6.650306      -180.9640
   9   1.0000      -2.648002       -72.0558
  10   1.0000      -2.648002       -72.0558
  11   1.0000      -2.640261       -71.8452
  12   1.0000      -2.640261       -71.8452
  13   1.0000      -2.637818       -71.7787
  14   1.0000      -0.741175       -20.1684
  15   1.0000      -0.347935        -9.4678
  16   0.0000       0.001777         0.0483
  17   0.0000       0.001777         0.0483
  18   0.0000       0.343509         9.3474
  19   0.0000       0.370187        10.0733
  20   0.0000       0.370187        10.0733

E(0)                                       ...  -2399.827191073
E(0)                                       ...  -2399.827191073
E(CORR)                                    ...     -0.224579223
E(TOT)                                     ...  -2400.051770296
E(CCSD(T))                                 ...  -2400.058140774

MULLIKEN ATOMIC CHARGES AND SPIN DENSITIES
------------------------------------------
   0 Se:   -0.000000    2.000000
Sum of atomic charges       :   -0.0000000

LOEWDIN ATOMIC CHARGES AND SPIN DENSITIES
-----------------------------------------
   0 Se:   -0.000000    2.000000

FINAL SINGLE POINT ENERGY     -2400.058140773782

DIPOLE MOMENT
-------------
                                X             Y             Z
Electronic contribution:      0.00000      -0.00000       0.00000
Nuclear contribution   :      0.00000       0.00000       0.00000
                        -----------------------------------------
Total Dipole Moment    :      0.00000      -0.00000       0.00000
                        -----------------------------------------
Magnitude (a.u.)       :      0.00000
Magnitude (Debye)      :      0.00000

Rotational constants in cm-1:     0.000000     0.000000     0.000000
Rotational constants in MHz :     0.000000     0.000000     0.000000

                             ****ORCA TERMINATED NORMALLY****
TOTAL RUN TIME: 0 days 0 hours 0 minutes 10 seconds 402 msec
