                         Program Version 4.2.0 -  RELEASE  -
|  1> #
|  2> # 35_Br CCSD(T)/Def2-TZVP
|  3> #
|  4> ! CCSD(T) Def2-TZVP tightscf
|  5>
|  6> *xyz 0 2
|  7>  Br 0.0 0.0 0.0
|  8> *
|  9>
| 10> %maxcore 5000
| 11>
| 12> %pal
| 13> nprocs 24
| 14> end
| 15>
| 16>
| 17>                          ****END OF INPUT****

CARTESIAN COORDINATES (ANGSTROEM)
---------------------------------
  Br     0.000000    0.000000    0.000000

 Total Charge           Charge          ....    0
 Multiplicity           Mult            ....    2
 Number of Electrons    NEL             ....   35
 Basis Dimension        Dim             ....   48

ORBITAL ENERGIES
----------------
                 SPIN UP ORBITALS
  NO   OCC          E(Eh)            E(eV)
   0   1.0000    -490.057493    -13335.1423
   1   1.0000     -65.198556     -1774.1429
   2   1.0000     -58.558875     -1593.4680
   3   1.0000     -58.551347     -1593.2632
   4   1.0000     -58.551347     -1593.2632
   5   1.0000      -9.874247      -268.6919
   6   1.0000      -7.498163      -204.0354
   7   1.0000      -7.474651      -203.3956
   8   1.0000      -7.474651      -203.3956
   9   1.0000      -3.231812       -87.9421
  10   1.0000      -3.226293       -87.7919
  11   1.0000      -3.226293       -87.7919
  12   1.0000      -3.209964       -87.3476
  13   1.0000      -3.209964       -87.3476
  14   1.0000      -1.046657       -28.4810
  15   1.0000      -0.523020       -14.2321
  16   1.0000      -0.453487       -12.3400
  17   1.0000      -0.453487       -12.3400
  18   0.0000       0.334728         9.1084
  19   0.0000       0.361885         9.8474
  20   0.0000       0.361885         9.8474
  21   0.0000       0.405507        11.0344
  22   0.0000       0.415451        11.3050

                 SPIN DOWN ORBITALS
  NO   OCC          E(Eh)            E(eV)
   0   1.0000    -490.053239    -13335.0266
   1   1.0000     -65.196313     -1774.0819
   2   1.0000     -58.550065     -1593.2283
   3   1.0000     -58.550065     -1593.2283
   4   1.0000     -58.547271     -1593.1522
   5   1.0000      -9.866058      -268.4691
   6   1.0000      -7.472570      -203.3390
   7   1.0000      -7.472570      -203.3390
   8   1.0000      -7.469160      -203.2462
   9   1.0000      -3.221183       -87.6528
  10   1.0000      -3.218185       -87.5713
  11   1.0000      -3.218185       -87.5713
  12   1.0000      -3.209526       -87.3356
  13   1.0000      -3.209526       -87.3356
  14   1.0000      -0.940066       -25.5805
  15   1.0000      -0.433331       -11.7915
  16   1.0000      -0.433331       -11.7915
  17   0.0000      -0.045816        -1.2467
  18   0.0000       0.366469         9.9721
  19   0.0000       0.366469         9.9721
  20   0.0000       0.390632        10.6296
  21   0.0000       0.450250        12.2519

E(0)                                       ...  -2572.398101168
E(0)                                       ...  -2572.398101168
E(CORR)                                    ...     -0.256750967
E(TOT)                                     ...  -2572.654852135
E(CCSD(T))                                 ...  -2572.661645372

MULLIKEN ATOMIC CHARGES AND SPIN DENSITIES
------------------------------------------
   0 Br:    0.000000    1.000000
Sum of atomic charges       :    0.0000000

LOEWDIN ATOMIC CHARGES AND SPIN DENSITIES
-----------------------------------------
   0 Br:   -0.000000    1.000000

FINAL SINGLE POINT ENERGY     -2572.661645372159

DIPOLE MOMENT
-------------
                                X             Y             Z
Electronic contribution:     -0.00000      -0.00000      -0.00000
Nuclear contribution   :      0.00000       0.00000       0.00000
                        -----------------------------------------
Total Dipole Moment    :     -0.00000      -0.00000      -0.00000
                        -----------------------------------------
Magnitude (a.u.)       :      0.00000
Magnitude (Debye)      :      0.00000

Rotational constants in cm-1:     0.000000     0.000000     0.000000
Rotational constants in MHz :     0.000000     0.000000     0.000000

                             ****ORCA TERMINATED NORMALLY****
TOTAL RUN TIME: 0 days 0 hours 0 minutes 10 seconds 46 msec
