                         Program Version 4.2.0 -  RELEASE  -
|  1> #
|  2> # 36_Kr CCSD(T)/Def2-TZVP
|  3> #
|  4> ! CCSD(T) Def2-TZVP tightscf
|  5>
|  6> *xyz 0 1
|  7>  Kr 0.0 0.0 0.0
|  8> *
|  9>
| 10> %maxcore 5000
| 11>
| 12> %pal
| 13> nprocs 24
| 14> end
| 15>
| 16>
| 17>                          ****END OF INPUT****

CARTESIAN COORDINATES (ANGSTROEM)
---------------------------------
  Kr     0.000000    0.000000    0.000000

 Total Charge           Charge          ....    0
 Multiplicity           Mult            ....    1
 Number of Electrons    NEL             ....   36
 Basis Dimension        Dim             ....   48

ORBITAL ENERGIES
----------------

  NO   OCC          E(Eh)            E(eV)
   0   2.0000    -520.161195    -14154.3057
   1   2.0000     -69.901410     -1902.1141
   2   2.0000     -63.007923     -1714.5328
   3   2.0000     -63.007923     -1714.5328
   4   2.0000     -63.007923     -1714.5328
   5   2.0000     -10.848555      -295.2042
   6   2.0000      -8.331074      -226.7000
   7   2.0000      -8.331074      -226.7000
   8   2.0000      -8.331074      -226.7000
   9   2.0000      -3.824015      -104.0567
  10   2.0000      -3.824015      -104.0567
  11   2.0000      -3.824015      -104.0567
  12   2.0000      -3.824015      -104.0567
  13   2.0000      -3.824015      -104.0567
  14   2.0000      -1.151858       -31.3436
  15   2.0000      -0.523678       -14.2500
  16   2.0000      -0.523678       -14.2500
  17   2.0000      -0.523678       -14.2500
  18   0.0000       0.402489        10.9523
  19   0.0000       0.402489        10.9523
  20   0.0000       0.402489        10.9523
  21   0.0000       0.481271        13.0961
  22   0.0000       0.481271        13.0961

E(0)                                       ...  -2752.002727576
E(0)                                       ...  -2752.002727576
E(CORR)                                    ...     -0.288246186
E(TOT)                                     ...  -2752.290973762
E(CCSD(T))                                 ...  -2752.298414053

MULLIKEN ATOMIC CHARGES
-----------------------
   0 Kr:   -0.000000
Sum of atomic charges:   -0.0000000

LOEWDIN ATOMIC CHARGES
----------------------
   0 Kr:   -0.000000

FINAL SINGLE POINT ENERGY     -2752.298414053422

DIPOLE MOMENT
-------------
                                X             Y             Z
Electronic contribution:     -0.00000       0.00000      -0.00000
Nuclear contribution   :      0.00000       0.00000       0.00000
                        -----------------------------------------
Total Dipole Moment    :     -0.00000       0.00000      -0.00000
                        -----------------------------------------
Magnitude (a.u.)       :      0.00000
Magnitude (Debye)      :      0.00000

Rotational constants in cm-1:     0.000000     0.000000     0.000000
Rotational constants in MHz :     0.000000     0.000000     0.000000

                             ****ORCA TERMINATED NORMALLY****
TOTAL RUN TIME: 0 days 0 hours 0 minutes 5 seconds 607 msec
