                         Program Version 4.2.0 -  RELEASE  -
|  1> # input to generate an atomic fitting density for Rb
|  2> # this file is use internally by ORCA
|  3> #
|  4> # atomic ground state (S=2): 1s2 2s2 2p6 3s2 3p6 4s2 3d10 4p6 5s1
|  5> #
|  6> ! RHF AllowRHF def2-SVP def2/J  NoMulliken NoLoewdin NoMayer NoPrintMOs
|  7>
|  8> %output print[p_atomdensfit] 2 end
|  9>
| 10> %scf
| 11>   guess hcore
| 12>   maxiter 1000
| 13>   maxdisk 500000
| 14>   SCFMode Conventional
| 15>   lshift 1.000000
| 16>   hftyp rohf
| 17>   rohf_case sahf
| 18>   rohf_numop   2
| 19>   rohf_norb[1] 1
| 20>   rohf_nel[1]  1
| 21> end
| 22>
| 23> %basis
| 24>   NewECP 37
| 25>     N_core 28
| 26>     lmax f
| 27>     s 3
| 28>       1       5.0365510000     89.5001980000  2
| 29>       2       1.9708490000      0.4937610000  2
| 30>       3       3.8431140000     12.3169000000  2
| 31>     p 3
| 32>       1       4.2583410000     58.5689740000  2
| 33>       2       1.4707090000      0.4317910000  2
| 34>       3       3.8431140000     12.3169000000  2
| 35>     d 3
| 36>       1       3.0231270000     26.2248980000  2
| 37>       2       0.6503830000      0.9628390000  2
| 38>       3       3.8431140000     12.3169000000  2
| 39>     f 1
| 40>       1       3.8431140000    -12.3169000000  2
| 41>   end
| 42>   NewGTO 37
| 43>     s 2
| 44>      1       7.4744618040      1.7106146109
| 45>      2       6.7296180594     -2.7010364459
| 46>     s 1
| 47>      1       2.7816640004      1.0000000000
| 48>     s 1
| 49>      1       0.5345217515      1.0000000000
| 50>     s 1
| 51>      1       0.2236879303      1.0000000000
| 52>     s 1
| 53>      1       0.0324104071      1.0000000000
| 54>     s 1
| 55>      1       0.0141710474      1.0000000000
| 56>     p 4
| 57>      1       5.6720643194      0.0525368698
| 58>      2       3.3320183956     -0.2018427941
| 59>      3       0.8015005491      0.4674711930
| 60>      4       0.3630222023      0.6406638595
| 61>     p 1
| 62>      1       0.1573392439      1.0000000000
| 63>     p 1
| 64>      1       0.0400000000      1.0000000000
| 65>     p 1
| 66>      1       0.0160000000      1.0000000000
| 67>   end
| 68>   NewAuxGTO 37
| 69>     S 1
| 70>      1 1310.72 1.0
| 71>     S 1
| 72>      1  655.36 1.0
| 73>     S 1
| 74>      1  327.68 1.0
| 75>     S 1
| 76>      1  163.84 1.0
| 77>     S 1
| 78>      1   81.82 1.0
| 79>     S 1
| 80>      1   40.96 1.0
| 81>     S 1
| 82>      1   20.48 1.0
| 83>     S 1
| 84>      1   10.24 1.0
| 85>     S 1
| 86>      1    5.12 1.0
| 87>     S 1
| 88>      1    2.56 1.0
| 89>     S 1
| 90>      1    1.28 1.0
| 91>     S 1
| 92>      1    0.64 1.0
| 93>     S 1
| 94>      1    0.32 1.0
| 95>     S 1
| 96>      1    0.16 1.0
| 97>     S 1
| 98>      1    0.08 1.0
| 99>     S 1
|100>      1    0.04 1.0
|101>     S 1
|102>      1    0.02 1.0
|103>     S 1
|104>      1    0.01 1.0
|105>   end
|106> end
|107>
|108> * xyz 0 2
|109> 37  0.0 0.0 0.0
|110> *
|111>
|112>
|113>                          ****END OF INPUT****

CARTESIAN COORDINATES (ANGSTROEM)
---------------------------------
  Rb     0.000000    0.000000    0.000000

 Total Charge           Charge          ....    0
 Multiplicity           Mult            ....    2
 Number of Electrons    NEL             ....    9
 Basis Dimension        Dim             ....   18

ORBITAL ENERGIES
----------------

  NO   OCC          E(Eh)            E(eV)
   0   2.0000      -1.577033       -42.9133
   1   2.0000      -0.808771       -22.0078
   2   2.0000      -0.808771       -22.0078
   3   2.0000      -0.808771       -22.0078
   4   1.0000      -0.140071        -3.8115
   5   0.0000      -0.083913        -2.2834
   6   0.0000      -0.083913        -2.2834
   7   0.0000      -0.083913        -2.2834
   8   0.0000      -0.045843        -1.2475
   9   0.0000      -0.015043        -0.4093

--------------------------
ATOM BASIS FOR ELEMENT Rb
--------------------------
 NewGTO Rb
 S 7
    1          7.474461804000        -0.279043430566
    2          6.729618059400         0.440605657842
    3          2.781664000400        -0.553420615094
    4          0.534521751500         0.793962982137
    5          0.223687930300         0.435363679775
    6          0.032410407100         0.008054943067
    7          0.014171047400        -0.002558935331
 S 7
    1          7.474461804000        -0.063767251697
    2          6.729618059400         0.100687594851
    3          2.781664000400        -0.133309128897
    4          0.534521751500         0.227526586994
    5          0.223687930300         0.283204607744
    6          0.032410407100        -0.780063364970
    7          0.014171047400        -0.356146288119
 S 7
    1          7.474461804000        -0.040996364279
    2          6.729618059400         0.064732683423
    3          2.781664000400        -0.089794820954
    4          0.534521751500         0.096658013688
    5          0.223687930300         0.434286771676
    6          0.032410407100        -2.409530336807
    7          0.014171047400         2.268056493124
 S 7
    1          7.474461804000        -0.410736775241
    2          6.729618059400         0.648547599516
    3          2.781664000400        -0.810441737826
    4          0.534521751500         2.946413798908
    5          0.223687930300        -2.988061215423
    6          0.032410407100         1.352885945233
    7          0.014171047400        -0.710995551407
 S 7
    1          7.474461804000        -3.217449364006
    2          6.729618059400         5.080307358327
    3          2.781664000400        -3.152524909374
    4          0.534521751500         1.661708628119
    5          0.223687930300        -0.965114298187
    6          0.032410407100         0.296884241766
    7          0.014171047400        -0.156597129131
 S 7
    1          7.474461804000        -3.855637013704
    2          6.729618059400         6.087996694181
    3          2.781664000400        -1.734362091604
    4          0.534521751500         0.596506886007
    5          0.223687930300        -0.331343489018
    6          0.032410407100         0.101108162137
    7          0.014171047400        -0.053418102344
 P 7
    1          5.672064319400        -0.042772012456
    2          3.332018395600         0.164326929570
    3          0.801500549100        -0.380583840759
    4          0.363022202300        -0.521585748887
    5          0.157339243900        -0.234596394819
    6          0.040000000000        -0.011955909615
    7          0.016000000000         0.002069637717
 P 7
    1          5.672064319400        -0.005077441722
    2          3.332018395600         0.019507158078
    3          0.801500549100        -0.045178895286
    4          0.363022202300        -0.061917153090
    5          0.157339243900        -0.002202773452
    6          0.040000000000        -0.163534474412
    7          0.016000000000         1.122590476031
 P 7
    1          5.672064319400        -0.009437981056
    2          3.332018395600         0.036260029849
    3          0.801500549100        -0.083978818700
    4          0.363022202300        -0.115091999058
    5          0.157339243900        -0.321760391573
    6          0.040000000000         1.836712816854
    7          0.016000000000        -1.241687623283
 P 7
    1          5.672064319400        -0.069106433017
    2          3.332018395600         0.265501838681
    3          0.801500549100        -0.614906575315
    4          0.363022202300        -0.842722344547
    5          0.157339243900         1.950387820597
    6          0.040000000000        -1.158737071870
    7          0.016000000000         0.510582444119
 end
  // -----------------------------------------------
  // The basis set
  // -----------------------------------------------
  BAS[ATNO] = new BFNGauss[NSH];
  // Basis function   1 L = s
  InitBFNGauss(BAS[ATNO][  0]);
  BAS[ATNO][  0].l  = 0;
  BAS[ATNO][  0].ng = 7;
  BAS[ATNO][  0].a[  0] =         7.474461804000;     BAS[ATNO][  0].d[  0] =        -0.279043430566;
  BAS[ATNO][  0].a[  1] =         6.729618059400;     BAS[ATNO][  0].d[  1] =         0.440605657842;
  BAS[ATNO][  0].a[  2] =         2.781664000400;     BAS[ATNO][  0].d[  2] =        -0.553420615094;
  BAS[ATNO][  0].a[  3] =         0.534521751500;     BAS[ATNO][  0].d[  3] =         0.793962982137;
  BAS[ATNO][  0].a[  4] =         0.223687930300;     BAS[ATNO][  0].d[  4] =         0.435363679775;
  BAS[ATNO][  0].a[  5] =         0.032410407100;     BAS[ATNO][  0].d[  5] =         0.008054943067;
  BAS[ATNO][  0].a[  6] =         0.014171047400;     BAS[ATNO][  0].d[  6] =        -0.002558935331;

FINAL SINGLE POINT ENERGY       -23.802445150928

DIPOLE MOMENT
-------------
                                X             Y             Z
Electronic contribution:     -0.00000      -0.00000      -0.00000
Nuclear contribution   :      0.00000       0.00000       0.00000
                        -----------------------------------------
Total Dipole Moment    :     -0.00000      -0.00000      -0.00000
                        -----------------------------------------
Magnitude (a.u.)       :      0.00000
Magnitude (Debye)      :      0.00000

Rotational constants in cm-1:     0.000000     0.000000     0.000000
Rotational constants in MHz :     0.000000     0.000000     0.000000

                             ****ORCA TERMINATED NORMALLY****
TOTAL RUN TIME: 0 days 0 hours 0 minutes 0 seconds 988 msec
