                         Program Version 4.2.0 -  RELEASE  -
|  1> #
|  2> # 37_Rb CCSD(T)/Def2-TZVP
|  3> #
|  4> ! CCSD(T) Def2-TZVP tightscf
|  5>
|  6> *xyz 0 2
|  7>  Rb 0.0 0.0 0.0
|  8> *
|  9>
| 10> %maxcore 5000
| 11>
| 12> %pal
| 13> nprocs 24
| 14> end
| 15>
| 16> %method
| 17> NewNCore Rb 28 end
| 18> end
| 19>
| 20>
| 21>                          ****END OF INPUT****

CARTESIAN COORDINATES (ANGSTROEM)
---------------------------------
  Rb     0.000000    0.000000    0.000000

 Total Charge           Charge          ....    0
 Multiplicity           Mult            ....    2
 Number of Electrons    NEL             ....    9
 Basis Dimension        Dim             ....   33

ORBITAL ENERGIES
----------------
                 SPIN UP ORBITALS
  NO   OCC          E(Eh)            E(eV)
   0   1.0000      -1.579144       -42.9707
   1   1.0000      -0.809900       -22.0385
   2   1.0000      -0.809900       -22.0385
   3   1.0000      -0.809900       -22.0385
   4   1.0000      -0.140320        -3.8183
   5   0.0000       0.014805         0.4029
   6   0.0000       0.014805         0.4029
   7   0.0000       0.014805         0.4029
   8   0.0000       0.036636         0.9969
   9   0.0000       0.036636         0.9969

                 SPIN DOWN ORBITALS
  NO   OCC          E(Eh)            E(eV)
   0   1.0000      -1.575530       -42.8724
   1   1.0000      -0.808247       -21.9935
   2   1.0000      -0.808247       -21.9935
   3   1.0000      -0.808247       -21.9935
   4   0.0000       0.010269         0.2794
   5   0.0000       0.032609         0.8873
   6   0.0000       0.032609         0.8873
   7   0.0000       0.032609         0.8873
   8   0.0000       0.039301         1.0694

E(0)                                       ...    -23.802564670
E(0)                                       ...    -23.802564670
E(CORR)                                    ...     -0.075942951
E(TOT)                                     ...    -23.878507620
E(CCSD(T))                                 ...    -23.879745714

MULLIKEN ATOMIC CHARGES AND SPIN DENSITIES
------------------------------------------
   0 Rb:   -0.000000    1.000000
Sum of atomic charges       :   -0.0000000

LOEWDIN ATOMIC CHARGES AND SPIN DENSITIES
-----------------------------------------
   0 Rb:   -0.000000    1.000000

FINAL SINGLE POINT ENERGY       -23.879745714201

DIPOLE MOMENT
-------------
                                X             Y             Z
Electronic contribution:      0.00000       0.00000      -0.00000
Nuclear contribution   :      0.00000       0.00000       0.00000
                        -----------------------------------------
Total Dipole Moment    :      0.00000       0.00000      -0.00000
                        -----------------------------------------
Magnitude (a.u.)       :      0.00000
Magnitude (Debye)      :      0.00000

Rotational constants in cm-1:     0.000000     0.000000     0.000000
Rotational constants in MHz :     0.000000     0.000000     0.000000

                             ****ORCA TERMINATED NORMALLY****
TOTAL RUN TIME: 0 days 0 hours 0 minutes 10 seconds 179 msec
