                         Program Version 4.2.0 -  RELEASE  -
|  1> #
|  2> # 39_Y CCSD(T)/Def2-TZVP
|  3> #
|  4> ! CCSD(T) Def2-TZVP tightscf
|  5>
|  6> *xyz 0 2
|  7>  Y 0.0 0.0 0.0
|  8> *
|  9>
| 10> %maxcore 5000
| 11>
| 12> %pal
| 13> nprocs 24
| 14> end
| 15>
| 16>
| 17>                          ****END OF INPUT****

CARTESIAN COORDINATES (ANGSTROEM)
---------------------------------
   Y     0.000000    0.000000    0.000000

 Total Charge           Charge          ....    0
 Multiplicity           Mult            ....    2
 Number of Electrons    NEL             ....   11
 Basis Dimension        Dim             ....   40

ORBITAL ENERGIES
----------------
                 SPIN UP ORBITALS
  NO   OCC          E(Eh)            E(eV)
   0   1.0000      -2.270103       -61.7727
   1   1.0000      -1.332063       -36.2473
   2   1.0000      -1.332060       -36.2472
   3   1.0000      -1.310499       -35.6605
   4   1.0000      -0.235716        -6.4142
   5   1.0000      -0.210861        -5.7378
   6   0.0000       0.020465         0.5569
   7   0.0000       0.020465         0.5569
   8   0.0000       0.028832         0.7846
   9   0.0000       0.083068         2.2604
  10   0.0000       0.086941         2.3658

                 SPIN DOWN ORBITALS
  NO   OCC          E(Eh)            E(eV)
   0   1.0000      -2.242289       -61.0158
   1   1.0000      -1.305954       -35.5368
   2   1.0000      -1.272362       -34.6227
   3   1.0000      -1.272357       -34.6226
   4   1.0000      -0.196008        -5.3337
   5   0.0000       0.017157         0.4669
   6   0.0000       0.033172         0.9027
   7   0.0000       0.033173         0.9027
   8   0.0000       0.084751         2.3062
   9   0.0000       0.094436         2.5697

E(0)                                       ...    -37.819357776
E(0)                                       ...    -37.819357776
E(CORR)                                    ...     -0.212178298
E(TOT)                                     ...    -38.031536074
E(CCSD(T))                                 ...    -38.038044358

MULLIKEN ATOMIC CHARGES AND SPIN DENSITIES
------------------------------------------
   0  Y:    0.000000    1.000000
Sum of atomic charges       :    0.0000000

LOEWDIN ATOMIC CHARGES AND SPIN DENSITIES
-----------------------------------------
   0  Y:   -0.000000    1.000000

FINAL SINGLE POINT ENERGY       -38.038044357619

DIPOLE MOMENT
-------------
                                X             Y             Z
Electronic contribution:      0.00000      -0.00000       0.00000
Nuclear contribution   :      0.00000       0.00000       0.00000
                        -----------------------------------------
Total Dipole Moment    :      0.00000      -0.00000       0.00000
                        -----------------------------------------
Magnitude (a.u.)       :      0.00000
Magnitude (Debye)      :      0.00000

Rotational constants in cm-1:     0.000000     0.000000     0.000000
Rotational constants in MHz :     0.000000     0.000000     0.000000

                             ****ORCA TERMINATED NORMALLY****
TOTAL RUN TIME: 0 days 0 hours 0 minutes 25 seconds 603 msec
