                         Program Version 4.2.0 -  RELEASE  -
|  1> #
|  2> # 40_Zr CCSD(T)/Def2-TZVP
|  3> #
|  4> ! CCSD(T) Def2-TZVP tightscf slowconv kdiis
|  5>
|  6> *xyz 0 3
|  7>  Zr 0.0 0.0 0.0
|  8> *
|  9>
| 10> %maxcore 5000
| 11>
| 12> %pal
| 13> nprocs 24
| 14> end
| 15>
| 16>
| 17>                          ****END OF INPUT****

CARTESIAN COORDINATES (ANGSTROEM)
---------------------------------
  Zr     0.000000    0.000000    0.000000

 Total Charge           Charge          ....    0
 Multiplicity           Mult            ....    3
 Number of Electrons    NEL             ....   12
 Basis Dimension        Dim             ....   40

ORBITAL ENERGIES
----------------
                 SPIN UP ORBITALS
  NO   OCC          E(Eh)            E(eV)
   0   1.0000      -2.569343       -69.9154
   1   1.0000      -1.561006       -42.4771
   2   1.0000      -1.561005       -42.4771
   3   1.0000      -1.561003       -42.4771
   4   1.0000      -0.322158        -8.7664
   5   1.0000      -0.322158        -8.7664
   6   1.0000      -0.231711        -6.3052
   7   0.0000       0.024306         0.6614
   8   0.0000       0.024307         0.6614
   9   0.0000       0.024308         0.6614
  10   0.0000       0.073885         2.0105
  11   0.0000       0.073886         2.0105

                 SPIN DOWN ORBITALS
  NO   OCC          E(Eh)            E(eV)
   0   1.0000      -2.492845       -67.8338
   1   1.0000      -1.454053       -39.5668
   2   1.0000      -1.454051       -39.5667
   3   1.0000      -1.454049       -39.5667
   4   1.0000      -0.197175        -5.3654
   5   0.0000       0.029638         0.8065
   6   0.0000       0.029639         0.8065
   7   0.0000       0.029639         0.8065
   8   0.0000       0.095676         2.6035
   9   0.0000       0.095676         2.6035

E(0)                                       ...    -46.442697523
E(0)                                       ...    -46.442697523
E(CORR)                                    ...     -0.234614372
E(TOT)                                     ...    -46.677311896
E(CCSD(T))                                 ...    -46.684950828

MULLIKEN ATOMIC CHARGES AND SPIN DENSITIES
------------------------------------------
   0 Zr:   -0.000000    2.000000
Sum of atomic charges       :   -0.0000000

LOEWDIN ATOMIC CHARGES AND SPIN DENSITIES
-----------------------------------------
   0 Zr:   -0.000000    2.000000

FINAL SINGLE POINT ENERGY       -46.684950827584

DIPOLE MOMENT
-------------
                                X             Y             Z
Electronic contribution:      0.00000      -0.00000       0.00000
Nuclear contribution   :      0.00000       0.00000       0.00000
                        -----------------------------------------
Total Dipole Moment    :      0.00000      -0.00000       0.00000
                        -----------------------------------------
Magnitude (a.u.)       :      0.00000
Magnitude (Debye)      :      0.00000

Rotational constants in cm-1:     0.000000     0.000000     0.000000
Rotational constants in MHz :     0.000000     0.000000     0.000000

                             ****ORCA TERMINATED NORMALLY****
TOTAL RUN TIME: 0 days 0 hours 0 minutes 18 seconds 197 msec
