                         Program Version 4.2.0 -  RELEASE  -
|  1> #
|  2> # 41_Nb CCSD(T)/Def2-TZVP
|  3> #
|  4> ! CCSD(T) Def2-TZVP tightscf Patom
|  5>
|  6> *xyz 0 6
|  7>  Nb 0.0 0.0 0.0
|  8> *
|  9>
| 10> %maxcore 5000
| 11>
| 12> %pal
| 13> nprocs 24
| 14> end
| 15>
| 16>
| 17>                          ****END OF INPUT****

CARTESIAN COORDINATES (ANGSTROEM)
---------------------------------
  Nb     0.000000    0.000000    0.000000

 Total Charge           Charge          ....    0
 Multiplicity           Mult            ....    6
 Number of Electrons    NEL             ....   13
 Basis Dimension        Dim             ....   40

ORBITAL ENERGIES
----------------
                 SPIN UP ORBITALS
  NO   OCC          E(Eh)            E(eV)
   0   1.0000      -2.662444       -72.4488
   1   1.0000      -1.622936       -44.1623
   2   1.0000      -1.622936       -44.1623
   3   1.0000      -1.622936       -44.1623
   4   1.0000      -0.204843        -5.5741
   5   1.0000      -0.204843        -5.5741
   6   1.0000      -0.204843        -5.5741
   7   1.0000      -0.204843        -5.5741
   8   1.0000      -0.204843        -5.5741
   9   0.0000       0.000843         0.0229
  10   0.0000       0.053237         1.4487
  11   0.0000       0.053237         1.4487
  12   0.0000       0.053237         1.4487
  13   0.0000       0.205028         5.5791

                 SPIN DOWN ORBITALS
  NO   OCC          E(Eh)            E(eV)
   0   1.0000      -2.488669       -67.7201
   1   1.0000      -1.376516       -37.4569
   2   1.0000      -1.376516       -37.4569
   3   1.0000      -1.376516       -37.4569
   4   0.0000       0.041039         1.1167
   5   0.0000       0.067442         1.8352
   6   0.0000       0.067442         1.8352
   7   0.0000       0.067442         1.8352
   8   0.0000       0.238884         6.5004

E(0)                                       ...    -56.264638005
E(0)                                       ...    -56.264638005
E(CORR)                                    ...     -0.248441450
E(TOT)                                     ...    -56.513079454
E(CCSD(T))                                 ...    -56.518365635

MULLIKEN ATOMIC CHARGES AND SPIN DENSITIES
------------------------------------------
   0 Nb:   -0.000000    5.000000
Sum of atomic charges       :   -0.0000000

LOEWDIN ATOMIC CHARGES AND SPIN DENSITIES
-----------------------------------------
   0 Nb:   -0.000000    5.000000

FINAL SINGLE POINT ENERGY       -56.518365635033

DIPOLE MOMENT
-------------
                                X             Y             Z
Electronic contribution:      0.00000      -0.00000       0.00000
Nuclear contribution   :      0.00000       0.00000       0.00000
                        -----------------------------------------
Total Dipole Moment    :      0.00000      -0.00000       0.00000
                        -----------------------------------------
Magnitude (a.u.)       :      0.00000
Magnitude (Debye)      :      0.00000

Rotational constants in cm-1:     0.000000     0.000000     0.000000
Rotational constants in MHz :     0.000000     0.000000     0.000000

                             ****ORCA TERMINATED NORMALLY****
TOTAL RUN TIME: 0 days 0 hours 0 minutes 15 seconds 106 msec
