                         Program Version 4.2.0 -  RELEASE  -
|  1> #
|  2> # 43_Tc CCSD(T)/Def2-TZVP
|  3> #
|  4> ! CCSD(T) Def2-TZVP tightscf veryslowconv kdiis
|  5>
|  6> *xyz 0 6
|  7>  Tc 0.0 0.0 0.0
|  8> *
|  9>
| 10> %maxcore 5000
| 11>
| 12> %pal
| 13> nprocs 24
| 14> end
| 15>
| 16> %scf
| 17> maxiter 200
| 18> diismaxeq 40
| 19> directresetfreq 1
| 20> end
| 21>
| 22>
| 23>                          ****END OF INPUT****

CARTESIAN COORDINATES (ANGSTROEM)
---------------------------------
  Tc     0.000000    0.000000    0.000000

 Total Charge           Charge          ....    0
 Multiplicity           Mult            ....    6
 Number of Electrons    NEL             ....   15
 Basis Dimension        Dim             ....   40

ORBITAL ENERGIES
----------------
                 SPIN UP ORBITALS
  NO   OCC          E(Eh)            E(eV)
   0   1.0000      -3.313277       -90.1589
   1   1.0000      -2.162060       -58.8326
   2   1.0000      -2.110749       -57.4364
   3   1.0000      -2.110748       -57.4364
   4   1.0000      -0.404321       -11.0021
   5   1.0000      -0.397764       -10.8237
   6   1.0000      -0.397763       -10.8237
   7   1.0000      -0.378840       -10.3088
   8   1.0000      -0.344920        -9.3858
   9   1.0000      -0.237269        -6.4564
  10   0.0000       0.030481         0.8294
  11   0.0000       0.038116         1.0372
  12   0.0000       0.038116         1.0372
  13   0.0000       0.178866         4.8672
  14   0.0000       0.238946         6.5021

                 SPIN DOWN ORBITALS
  NO   OCC          E(Eh)            E(eV)
   0   1.0000      -3.096062       -84.2481
   1   1.0000      -1.860457       -50.6256
   2   1.0000      -1.860457       -50.6256
   3   1.0000      -1.826154       -49.6922
   4   1.0000      -0.244744        -6.6598
   5   0.0000       0.028371         0.7720
   6   0.0000       0.071338         1.9412
   7   0.0000       0.073615         2.0032
   8   0.0000       0.073615         2.0032
   9   0.0000       0.191642         5.2148

E(0)                                       ...    -80.082570180
E(0)                                       ...    -80.082570180
E(CORR)                                    ...     -0.310349581
E(TOT)                                     ...    -80.392919761
E(CCSD(T))                                 ...    -80.399394796

MULLIKEN ATOMIC CHARGES AND SPIN DENSITIES
------------------------------------------
   0 Tc:   -0.000000    5.000000
Sum of atomic charges       :   -0.0000000

LOEWDIN ATOMIC CHARGES AND SPIN DENSITIES
-----------------------------------------
   0 Tc:    0.000000    5.000000

FINAL SINGLE POINT ENERGY       -80.399394795745

DIPOLE MOMENT
-------------
                                X             Y             Z
Electronic contribution:      0.00000       0.00000      -0.00000
Nuclear contribution   :      0.00000       0.00000       0.00000
                        -----------------------------------------
Total Dipole Moment    :      0.00000       0.00000      -0.00000
                        -----------------------------------------
Magnitude (a.u.)       :      0.00000
Magnitude (Debye)      :      0.00000

Rotational constants in cm-1:     0.000000     0.000000     0.000000
Rotational constants in MHz :     0.000000     0.000000     0.000000

                             ****ORCA TERMINATED NORMALLY****
TOTAL RUN TIME: 0 days 0 hours 0 minutes 8 seconds 680 msec
