                         Program Version 4.2.0 -  RELEASE  -
|  1> # input to generate an atomic fitting density for Tc
|  2> # this file is use internally by ORCA
|  3> #
|  4> # atomic ground state (S=6): 1s2 2s2 2p6 3s2 3p6 4s2 3d10 4p6 5s2 4d5
|  5> #
|  6> ! RHF AllowRHF def2-SVP def2/J  NoMulliken NoLoewdin NoMayer NoPrintMOs
|  7>
|  8> %output print[p_atomdensfit] 2 end
|  9>
| 10> %scf
| 11>   guess hcore
| 12>   maxiter 1000
| 13>   maxdisk 500000
| 14>   SCFMode Conventional
| 15>   lshift 1.000000
| 16>   hftyp rohf
| 17>   rohf_case sahf
| 18>   rohf_numop   2
| 19>   rohf_norb[1] 5
| 20>   rohf_nel[1]  5
| 21> end
| 22>
| 23> %basis
| 24>   NewECP 43
| 25>     N_core 28
| 26>     lmax f
| 27>     s 4
| 28>       1      10.4223462000    195.1591659000  2
| 29>       2       5.0365160000     28.0926033000  2
| 30>       3      10.4000000000     26.5624475000  2
| 31>       4       5.2000000000      4.5856805000  2
| 32>     p 4
| 33>       1       8.9504494000    135.2845662000  2
| 34>       2       4.8544394000     21.8065043000  2
| 35>       3      10.4000000000     26.5624475000  2
| 36>       4       5.2000000000      4.5856805000  2
| 37>     d 4
| 38>       1       6.9456968000     54.3297294000  2
| 39>       2       3.9705849000     11.1550679000  2
| 40>       3      10.4000000000     26.5624475000  2
| 41>       4       5.2000000000      4.5856805000  2
| 42>     f 2
| 43>       1      10.4000000000    -26.5624475000  2
| 44>       2       5.2000000000     -4.5856805000  2
| 45>   end
| 46>   NewGTO 43
| 47>     s 2
| 48>      1      15.0000000000     -1.4299187869
| 49>      2      12.9105816940      2.4152852863
| 50>     s 1
| 51>      1       4.4493321158      1.0000000000
| 52>     s 1
| 53>      1       1.0548409451      1.0000000000
| 54>     s 1
| 55>      1       0.4790967725      1.0000000000
| 56>     s 1
| 57>      1       0.0991241630      1.0000000000
| 58>     s 1
| 59>      1       0.0368827998      1.0000000000
| 60>     p 4
| 61>      1      10.0271380110      0.0705872683
| 62>      2       5.8463419741     -0.2709608961
| 63>      3       1.4968345491      0.5481792482
| 64>      4       0.7293463207      0.5824508331
| 65>     p 1
| 66>      1       0.3391355888      1.0000000000
| 67>     p 1
| 68>      1       0.1100000000      1.0000000000
| 69>     p 1
| 70>      1       0.0350000000      1.0000000000
| 71>     d 3
| 72>      1       5.0906268699     -0.0531431781
| 73>      2       2.0156178510      0.3514778811
| 74>      3       0.8811388724      0.7333737057
| 75>     d 1
| 76>      1       0.3642709483      1.0000000000
| 77>     d 1
| 78>      1       0.1367840230      1.0000000000
| 79>   end
| 80>   NewAuxGTO 43
| 81>     S 1
| 82>      1 1310.72 1.0
| 83>     S 1
| 84>      1  655.36 1.0
| 85>     S 1
| 86>      1  327.68 1.0
| 87>     S 1
| 88>      1  163.84 1.0
| 89>     S 1
| 90>      1   81.82 1.0
| 91>     S 1
| 92>      1   40.96 1.0
| 93>     S 1
| 94>      1   20.48 1.0
| 95>     S 1
| 96>      1   10.24 1.0
| 97>     S 1
| 98>      1    5.12 1.0
| 99>     S 1
|100>      1    2.56 1.0
|101>     S 1
|102>      1    1.28 1.0
|103>     S 1
|104>      1    0.64 1.0
|105>     S 1
|106>      1    0.32 1.0
|107>     S 1
|108>      1    0.16 1.0
|109>     S 1
|110>      1    0.08 1.0
|111>     S 1
|112>      1    0.04 1.0
|113>     S 1
|114>      1    0.02 1.0
|115>     S 1
|116>      1    0.01 1.0
|117>   end
|118> end
|119>
|120> * xyz 0 6
|121> 43  0.0 0.0 0.0
|122> *
|123>
|124>
|125>                          ****END OF INPUT****

CARTESIAN COORDINATES (ANGSTROEM)
---------------------------------
  Tc     0.000000    0.000000    0.000000

 Total Charge           Charge          ....    0
 Multiplicity           Mult            ....    6
 Number of Electrons    NEL             ....   15
 Basis Dimension        Dim             ....   33

ORBITAL ENERGIES
----------------

  NO   OCC          E(Eh)            E(eV)
   0   2.0000      -3.773891      -102.6928
   1   2.0000      -2.517406       -68.5021
   2   2.0000      -2.507998       -68.2461
   3   2.0000      -2.505331       -68.1735
   4   2.0000      -0.774692       -21.0804
   5   1.0000      -0.871834       -23.7238
   6   1.0000      -0.550984       -14.9930
   7   1.0000      -0.289317        -7.8727
   8   1.0000      -0.272576        -7.4172
   9   1.0000      -0.267923        -7.2906
  10   0.0000      -0.297135        -8.0854
  11   0.0000      -0.291918        -7.9435
  12   0.0000      -0.273169        -7.4333
  13   0.0000       0.096027         2.6130
  14   0.0000       0.132145         3.5959

CleanUpVectors: The p-vectors have cracked symmetry
CleanUpVectors: The p-vectors have cracked symmetry
CleanUpVectors: The p-vectors have cracked symmetry
CleanUpVectors: The d-vectors have cracked symmetry at i=4
CleanUpVectors: The d-vectors have cracked symmetry at i=5
CleanUpVectors: The p-vectors have cracked symmetry
CleanUpVectors: The p-vectors have cracked symmetry
CleanUpVectors: The p-vectors have cracked symmetry
CleanUpVectors: The d-vectors have cracked symmetry at i=10
CleanUpVectors: The d-vectors have cracked symmetry at i=11
CleanUpVectors: The d-vectors have cracked symmetry at i=12
CleanUpVectors: The p-vectors have cracked symmetry
CleanUpVectors: The p-vectors have cracked symmetry
CleanUpVectors: The p-vectors have cracked symmetry
CleanUpVectors: The d-vectors have cracked symmetry at i=17
CleanUpVectors: The d-vectors have cracked symmetry at i=18
CleanUpVectors: The d-vectors have cracked symmetry at i=19
CleanUpVectors: The d-vectors have cracked symmetry at i=20
CleanUpVectors: The d-vectors have cracked symmetry at i=21
CleanUpVectors: The p-vectors have cracked symmetry
CleanUpVectors: The p-vectors have cracked symmetry
CleanUpVectors: The p-vectors have cracked symmetry
CleanUpVectors: The d-vectors have cracked symmetry at i=26
CleanUpVectors: The d-vectors have cracked symmetry at i=27
CleanUpVectors: The d-vectors have cracked symmetry at i=28
--------------------------
ATOM BASIS FOR ELEMENT Tc
--------------------------
 NewGTO Tc
 S 7
    1         15.000000000000        -0.220912317239
    2         12.910581694000         0.373144457068
    3          4.449332115800        -0.659897173531
    4          1.054840945100         0.914599269291
    5          0.479096772500         0.399265984803
    6          0.099124163000         0.000201430611
    7          0.036882799800         0.001176390457
 P 19
    1         10.027138011000        -0.063884915841
    2          5.846341974100         0.245232808414
    3          1.496834549100        -0.496128919283
    4          0.729346320700        -0.527146372852
    5         10.027138011000         0.001336580177
    6          5.846341974100        -0.005130683920
    7          1.496834549100         0.010379853678
    8          0.729346320700         0.011028791115
    9         10.027138011000         0.004667903257
   10          5.846341974100        -0.017918518167
   11          1.496834549100         0.036250838992
   12          0.729346320700         0.038517202978
   13          0.339135588800        -0.119336678596
   14          0.339135588800         0.002496724569
   15          0.339135588800         0.008719618135
   16          0.110000000000        -0.000152242752
   17          0.110000000000         0.000003185175
   18          0.110000000000         0.000011123979
   19          0.035000000000         0.000961811485
 D 19
    1         15.000000000000         0.000008878534
    2         12.910581694000        -0.000017423837
    3          4.449332115800         0.000097438181
    4          1.054840945100        -0.000984277049
    5          0.479096772500         0.001244755416
    6          0.099124163000        -0.003336214488
    7          0.036882799800        -0.006946802198
    8          5.090626869900        -0.003804560452
    9          2.015617851000         0.025162568256
   10          0.881138872400         0.052502780173
   11          5.090626869900        -0.002434240878
   12          2.015617851000         0.016099560784
   13          0.881138872400         0.033592425546
   14          5.090626869900        -0.000376543696
   15          2.015617851000         0.002490381366
   16          0.881138872400         0.005196287758
   17          5.090626869900         0.001470959995
   18          2.015617851000        -0.009728622198
   19          0.881138872400        -0.020299188359
 P 19
    1         10.027138011000        -0.025701703820
    2          5.846341974100         0.098660238114
    3          1.496834549100        -0.199598893918
    4          0.729346320700        -0.212077604963
    5         10.027138011000         0.000537722988
    6          5.846341974100        -0.002064138565
    7          1.496834549100         0.004175945470
    8          0.729346320700         0.004437021150
    9         10.027138011000         0.001877956093
   10          5.846341974100        -0.007208844854
   11          1.496834549100         0.014584167714
   12          0.729346320700         0.015495954403
   13          0.339135588800         0.032324174611
   14          0.339135588800        -0.000676276245
   15          0.339135588800        -0.002361842666
   16          0.110000000000         0.866821789986
   17          0.110000000000        -0.018135373680
   18          0.110000000000        -0.063336394881
   19          0.035000000000         0.211697219032
 D 19
    1          5.090626869900        -0.003702917656
    2          2.015617851000         0.024490324031
    3          0.881138872400         0.051100113703
    4          5.090626869900        -0.022027979861
    5          2.015617851000         0.145688458300
    6          0.881138872400         0.303985230043
    7          5.090626869900        -0.022782649181
    8          2.015617851000         0.150679683569
    9          0.881138872400         0.314399636093
   10          5.090626869900        -0.001214283958
   11          2.015617851000         0.008031020496
   12          0.881138872400         0.016757069444
   13          5.090626869900         0.002092714485
   14          2.015617851000        -0.013840776546
   15          0.881138872400        -0.028879375151
   16          0.364270948300         0.045872436711
   17          0.364270948300         0.272886735780
   18          0.364270948300         0.282235720505
   19          0.364270948300         0.015042776852
 P 19
    1         10.027138011000         0.000448105963
    2          5.846341974100        -0.001720128802
    3          1.496834549100         0.003479981529
    4          0.729346320700         0.003697546281
    5         10.027138011000        -0.009135195925
    6          5.846341974100         0.035066959431
    7          1.496834549100        -0.070943740349
    8          0.729346320700        -0.075379067714
    9         10.027138011000         0.008748496115
   10          5.846341974100        -0.033582548299
   11          1.496834549100         0.067940637723
   12          0.729346320700         0.072188214298
   13          0.339135588800         0.005661004588
   14          0.339135588800        -0.115406600963
   15          0.339135588800         0.110521351541
   16          0.110000000000        -0.045110000453
   17          0.110000000000         0.919623317818
   18          0.110000000000        -0.880694961521
   19          0.035000000000         0.049350799507
 D 19
    1          5.090626869900        -0.001877139197
    2          2.015617851000         0.012415006609
    3          0.881138872400         0.025904444896
    4          5.090626869900        -0.011166757745
    5          2.015617851000         0.073854603572
    6          0.881138872400         0.154100804680
    7          5.090626869900        -0.011549326166
    8          2.015617851000         0.076384831209
    9          0.881138872400         0.159380233395
   10          5.090626869900        -0.000615563246
   11          2.015617851000         0.004071206751
   12          0.881138872400         0.008494747870
   13          5.090626869900         0.001060870576
   14          2.015617851000        -0.007016376430
   15          0.881138872400        -0.014639970991
   16          0.364270948300         0.053230493988
   17          0.364270948300         0.316658472707
   18          0.364270948300         0.327507058717
   19          0.364270948300         0.017455677095
 P 19
    1         10.027138011000         0.003439889233
    2          5.846341974100        -0.013204583369
    3          1.496834549100         0.026714107786
    4          0.729346320700         0.028384245458
    5         10.027138011000        -0.070126409173
    6          5.846341974100         0.269191812168
    7          1.496834549100        -0.544600225863
    8          0.729346320700        -0.578648054084
    9         10.027138011000         0.067157904797
   10          5.846341974100        -0.257796717487
   11          1.496834549100         0.521546883017
   12          0.729346320700         0.554153440706
   13          0.339135588800        -0.083294670472
   14          0.339135588800         1.698065183944
   15          0.339135588800        -1.626184789847
   16          0.110000000000         0.054954090987
   17          0.110000000000        -1.120307314893
   18          0.110000000000         1.072883851962
   19          0.035000000000        -0.018340538761
 D 19
    1          5.090626869900        -0.007411019031
    2          2.015617851000         0.049014932093
    3          0.881138872400         0.102271762510
    4          5.090626869900        -0.044086796716
    5          2.015617851000         0.291580866031
    6          0.881138872400         0.608396009340
    7          5.090626869900        -0.045597191817
    8          2.015617851000         0.301570303791
    9          0.881138872400         0.629239400580
   10          5.090626869900        -0.002430267793
   11          2.015617851000         0.016073283627
   12          0.881138872400         0.033537597129
   13          5.090626869900         0.004188358564
   14          2.015617851000        -0.027700928812
   15          0.881138872400        -0.057799178573
   16          0.364270948300        -0.197324092368
   17          0.364270948300        -1.173844934290
   18          0.364270948300        -1.214060367731
   19          0.364270948300        -0.064707752670
 end
  // -----------------------------------------------
  // The basis set
  // -----------------------------------------------
  BAS[ATNO] = new BFNGauss[NSH];
  // Basis function   1 L = s
  InitBFNGauss(BAS[ATNO][  0]);
  BAS[ATNO][  0].l  = 0;
  BAS[ATNO][  0].ng = 7;
  BAS[ATNO][  0].a[  0] =        15.000000000000;     BAS[ATNO][  0].d[  0] =        -0.220912317239;
  BAS[ATNO][  0].a[  1] =        12.910581694000;     BAS[ATNO][  0].d[  1] =         0.373144457068;
  BAS[ATNO][  0].a[  2] =         4.449332115800;     BAS[ATNO][  0].d[  2] =        -0.659897173531;
  BAS[ATNO][  0].a[  3] =         1.054840945100;     BAS[ATNO][  0].d[  3] =         0.914599269291;
  BAS[ATNO][  0].a[  4] =         0.479096772500;     BAS[ATNO][  0].d[  4] =         0.399265984803;
  BAS[ATNO][  0].a[  5] =         0.099124163000;     BAS[ATNO][  0].d[  5] =         0.000201430611;
  BAS[ATNO][  0].a[  6] =         0.036882799800;     BAS[ATNO][  0].d[  6] =         0.001176390457;

FINAL SINGLE POINT ENERGY       -79.339248656880

DIPOLE MOMENT
-------------
                                X             Y             Z
Electronic contribution:     -0.00000       0.00000       0.00000
Nuclear contribution   :      0.00000       0.00000       0.00000
                        -----------------------------------------
Total Dipole Moment    :     -0.00000       0.00000       0.00000
                        -----------------------------------------
Magnitude (a.u.)       :      0.00000
Magnitude (Debye)      :      0.00000

Rotational constants in cm-1:     0.000000     0.000000     0.000000
Rotational constants in MHz :     0.000000     0.000000     0.000000

                             ****ORCA TERMINATED NORMALLY****
TOTAL RUN TIME: 0 days 0 hours 0 minutes 1 seconds 231 msec
