                         Program Version 4.2.0 -  RELEASE  -
|  1> #
|  2> # 44_Ru CCSD(T)/Def2-TZVP
|  3> #
|  4> ! CCSD(T) Def2-TZVP tightscf
|  5>
|  6> *xyz 0 5
|  7>  Ru 0.0 0.0 0.0
|  8> *
|  9>
| 10> %maxcore 5000
| 11>
| 12> %pal
| 13> nprocs 24
| 14> end
| 15>
| 16>
| 17>                          ****END OF INPUT****

CARTESIAN COORDINATES (ANGSTROEM)
---------------------------------
  Ru     0.000000    0.000000    0.000000

 Total Charge           Charge          ....    0
 Multiplicity           Mult            ....    5
 Number of Electrons    NEL             ....   16
 Basis Dimension        Dim             ....   40

ORBITAL ENERGIES
----------------
                 SPIN UP ORBITALS
  NO   OCC          E(Eh)            E(eV)
   0   1.0000      -3.577067       -97.3369
   1   1.0000      -2.295749       -62.4705
   2   1.0000      -2.295749       -62.4705
   3   1.0000      -2.295748       -62.4705
   4   1.0000      -0.435533       -11.8515
   5   1.0000      -0.435533       -11.8515
   6   1.0000      -0.435533       -11.8514
   7   1.0000      -0.398249       -10.8369
   8   1.0000      -0.398249       -10.8369
   9   1.0000      -0.237334        -6.4582
  10   0.0000       0.039957         1.0873
  11   0.0000       0.039958         1.0873
  12   0.0000       0.039958         1.0873
  13   0.0000       0.197842         5.3836
  14   0.0000       0.265271         7.2184

                 SPIN DOWN ORBITALS
  NO   OCC          E(Eh)            E(eV)
   0   1.0000      -3.395832       -92.4053
   1   1.0000      -2.068630       -56.2903
   2   1.0000      -2.068630       -56.2903
   3   1.0000      -2.068630       -56.2903
   4   1.0000      -0.326585        -8.8868
   5   1.0000      -0.326585        -8.8868
   6   0.0000       0.025555         0.6954
   7   0.0000       0.075603         2.0573
   8   0.0000       0.075603         2.0573
   9   0.0000       0.075603         2.0573
  10   0.0000       0.193614         5.2685

E(0)                                       ...    -94.121142476
E(0)                                       ...    -94.121142476
E(CORR)                                    ...     -0.343289519
E(TOT)                                     ...    -94.464431995
E(CCSD(T))                                 ...    -94.471401383

MULLIKEN ATOMIC CHARGES AND SPIN DENSITIES
------------------------------------------
   0 Ru:    0.000000    4.000000
Sum of atomic charges       :    0.0000000

LOEWDIN ATOMIC CHARGES AND SPIN DENSITIES
-----------------------------------------
   0 Ru:    0.000000    4.000000

FINAL SINGLE POINT ENERGY       -94.471401383313

DIPOLE MOMENT
-------------
                                X             Y             Z
Electronic contribution:      0.00000      -0.00000      -0.00000
Nuclear contribution   :      0.00000       0.00000       0.00000
                        -----------------------------------------
Total Dipole Moment    :      0.00000      -0.00000      -0.00000
                        -----------------------------------------
Magnitude (a.u.)       :      0.00000
Magnitude (Debye)      :      0.00000

Rotational constants in cm-1:     0.000000     0.000000     0.000000
Rotational constants in MHz :     0.000000     0.000000     0.000000

                             ****ORCA TERMINATED NORMALLY****
TOTAL RUN TIME: 0 days 0 hours 0 minutes 29 seconds 956 msec
