                         Program Version 4.2.0 -  RELEASE  -
|  1> #
|  2> # 45_Rh CCSD(T)/Def2-TZVP
|  3> #
|  4> ! CCSD(T) Def2-TZVP tightscf
|  5>
|  6> *xyz 0 4
|  7>  Rh 0.0 0.0 0.0
|  8> *
|  9>
| 10> %maxcore 5000
| 11>
| 12> %pal
| 13> nprocs 24
| 14> end
| 15>
| 16>
| 17>                          ****END OF INPUT****

CARTESIAN COORDINATES (ANGSTROEM)
---------------------------------
  Rh     0.000000    0.000000    0.000000

 Total Charge           Charge          ....    0
 Multiplicity           Mult            ....    4
 Number of Electrons    NEL             ....   17
 Basis Dimension        Dim             ....   40

ORBITAL ENERGIES
----------------
                 SPIN UP ORBITALS
  NO   OCC          E(Eh)            E(eV)
   0   1.0000      -3.827025      -104.1386
   1   1.0000      -2.452503       -66.7360
   2   1.0000      -2.452503       -66.7360
   3   1.0000      -2.452503       -66.7360
   4   1.0000      -0.479714       -13.0537
   5   1.0000      -0.479714       -13.0537
   6   1.0000      -0.439853       -11.9690
   7   1.0000      -0.439853       -11.9690
   8   1.0000      -0.439853       -11.9690
   9   1.0000      -0.237292        -6.4570
  10   0.0000       0.041520         1.1298
  11   0.0000       0.041521         1.1298
  12   0.0000       0.041521         1.1298
  13   0.0000       0.176770         4.8102
  14   0.0000       0.265863         7.2345

                 SPIN DOWN ORBITALS
  NO   OCC          E(Eh)            E(eV)
   0   1.0000      -3.692342      -100.4737
   1   1.0000      -2.288494       -62.2731
   2   1.0000      -2.288493       -62.2731
   3   1.0000      -2.288493       -62.2731
   4   1.0000      -0.388553       -10.5731
   5   1.0000      -0.388553       -10.5731
   6   1.0000      -0.388553       -10.5731
   7   0.0000       0.019284         0.5248
   8   0.0000       0.074686         2.0323
   9   0.0000       0.074686         2.0323
  10   0.0000       0.074686         2.0323
  11   0.0000       0.170422         4.6374

E(0)                                       ...   -109.743193370
E(0)                                       ...   -109.743193370
E(CORR)                                    ...     -0.370342878
E(TOT)                                     ...   -110.113536248
E(CCSD(T))                                 ...   -110.120957660

MULLIKEN ATOMIC CHARGES AND SPIN DENSITIES
------------------------------------------
   0 Rh:   -0.000000    3.000000
Sum of atomic charges       :   -0.0000000

LOEWDIN ATOMIC CHARGES AND SPIN DENSITIES
-----------------------------------------
   0 Rh:   -0.000000    3.000000

FINAL SINGLE POINT ENERGY      -110.120957660218

DIPOLE MOMENT
-------------
                                X             Y             Z
Electronic contribution:      0.00000       0.00000       0.00000
Nuclear contribution   :      0.00000       0.00000       0.00000
                        -----------------------------------------
Total Dipole Moment    :      0.00000       0.00000       0.00000
                        -----------------------------------------
Magnitude (a.u.)       :      0.00000
Magnitude (Debye)      :      0.00000

Rotational constants in cm-1:     0.000000     0.000000     0.000000
Rotational constants in MHz :     0.000000     0.000000     0.000000

                             ****ORCA TERMINATED NORMALLY****
TOTAL RUN TIME: 0 days 0 hours 0 minutes 21 seconds 696 msec
