                         Program Version 4.2.0 -  RELEASE  -
|  1> #
|  2> # 46_Pd CCSD(T)/Def2-TZVP
|  3> #
|  4> ! CCSD(T) Def2-TZVP tightscf
|  5>
|  6> *xyz 0 1
|  7>  Pd 0.0 0.0 0.0
|  8> *
|  9>
| 10> %maxcore 5000
| 11>
| 12> %pal
| 13> nprocs 24
| 14> end
| 15>
| 16>
| 17>                          ****END OF INPUT****

CARTESIAN COORDINATES (ANGSTROEM)
---------------------------------
  Pd     0.000000    0.000000    0.000000

 Total Charge           Charge          ....    0
 Multiplicity           Mult            ....    1
 Number of Electrons    NEL             ....   18
 Basis Dimension        Dim             ....   40

ORBITAL ENERGIES
----------------

  NO   OCC          E(Eh)            E(eV)
   0   2.0000      -3.885285      -105.7240
   1   2.0000      -2.434775       -66.2536
   2   2.0000      -2.434775       -66.2536
   3   2.0000      -2.434775       -66.2536
   4   2.0000      -0.321517        -8.7489
   5   2.0000      -0.321517        -8.7489
   6   2.0000      -0.321517        -8.7489
   7   2.0000      -0.321517        -8.7489
   8   2.0000      -0.321517        -8.7489
   9   0.0000       0.029810         0.8112
  10   0.0000       0.078337         2.1316
  11   0.0000       0.078337         2.1316
  12   0.0000       0.078337         2.1316
  13   0.0000       0.261744         7.1224

E(0)                                       ...   -127.030194168
E(0)                                       ...   -127.030194168
E(CORR)                                    ...     -0.423876231
E(TOT)                                     ...   -127.454070399
E(CCSD(T))                                 ...   -127.463780088

MULLIKEN ATOMIC CHARGES
-----------------------
   0 Pd:   -0.000000
Sum of atomic charges:   -0.0000000

LOEWDIN ATOMIC CHARGES
----------------------
   0 Pd:   -0.000000

FINAL SINGLE POINT ENERGY      -127.463780087730

DIPOLE MOMENT
-------------
                                X             Y             Z
Electronic contribution:      0.00000      -0.00000       0.00000
Nuclear contribution   :      0.00000       0.00000       0.00000
                        -----------------------------------------
Total Dipole Moment    :      0.00000      -0.00000       0.00000
                        -----------------------------------------
Magnitude (a.u.)       :      0.00000
Magnitude (Debye)      :      0.00000

Rotational constants in cm-1:     0.000000     0.000000     0.000000
Rotational constants in MHz :     0.000000     0.000000     0.000000

                             ****ORCA TERMINATED NORMALLY****
TOTAL RUN TIME: 0 days 0 hours 0 minutes 7 seconds 158 msec
