                         Program Version 4.2.0 -  RELEASE  -
|  1> #
|  2> # 47_Ag CCSD(T)/Def2-TZVP
|  3> #
|  4> ! CCSD(T) Def2-TZVP tightscf
|  5>
|  6> *xyz 0 2
|  7>  Ag 0.0 0.0 0.0
|  8> *
|  9>
| 10> %maxcore 5000
| 11>
| 12> %pal
| 13> nprocs 24
| 14> end
| 15>
| 16>
| 17>                          ****END OF INPUT****

CARTESIAN COORDINATES (ANGSTROEM)
---------------------------------
  Ag     0.000000    0.000000    0.000000

 Total Charge           Charge          ....    0
 Multiplicity           Mult            ....    2
 Number of Electrons    NEL             ....   19
 Basis Dimension        Dim             ....   40

ORBITAL ENERGIES
----------------
                 SPIN UP ORBITALS
  NO   OCC          E(Eh)            E(eV)
   0   1.0000      -4.331601      -117.8689
   1   1.0000      -2.783163       -75.7337
   2   1.0000      -2.783163       -75.7337
   3   1.0000      -2.783163       -75.7337
   4   1.0000      -0.511329       -13.9140
   5   1.0000      -0.511329       -13.9140
   6   1.0000      -0.511329       -13.9140
   7   1.0000      -0.511329       -13.9140
   8   1.0000      -0.511329       -13.9140
   9   1.0000      -0.237906        -6.4738
  10   0.0000       0.048465         1.3188
  11   0.0000       0.048465         1.3188
  12   0.0000       0.048465         1.3188
  13   0.0000       0.179043         4.8720
  14   0.0000       0.306768         8.3476

                 SPIN DOWN ORBITALS
  NO   OCC          E(Eh)            E(eV)
   0   1.0000      -4.330839      -117.8481
   1   1.0000      -2.786995       -75.8380
   2   1.0000      -2.786995       -75.8380
   3   1.0000      -2.786995       -75.8380
   4   1.0000      -0.508718       -13.8429
   5   1.0000      -0.508718       -13.8429
   6   1.0000      -0.508718       -13.8429
   7   1.0000      -0.508718       -13.8429
   8   1.0000      -0.508718       -13.8429
   9   0.0000       0.013274         0.3612
  10   0.0000       0.081686         2.2228
  11   0.0000       0.081686         2.2228
  12   0.0000       0.081686         2.2228
  13   0.0000       0.223377         6.0784

E(0)                                       ...   -146.116958344
E(0)                                       ...   -146.116958344
E(CORR)                                    ...     -0.432345824
E(TOT)                                     ...   -146.549304168
E(CCSD(T))                                 ...   -146.557245273

MULLIKEN ATOMIC CHARGES AND SPIN DENSITIES
------------------------------------------
   0 Ag:   -0.000000    1.000000
Sum of atomic charges       :   -0.0000000

LOEWDIN ATOMIC CHARGES AND SPIN DENSITIES
-----------------------------------------
   0 Ag:   -0.000000    1.000000

FINAL SINGLE POINT ENERGY      -146.557245273465

DIPOLE MOMENT
-------------
                                X             Y             Z
Electronic contribution:      0.00000       0.00000      -0.00000
Nuclear contribution   :      0.00000       0.00000       0.00000
                        -----------------------------------------
Total Dipole Moment    :      0.00000       0.00000      -0.00000
                        -----------------------------------------
Magnitude (a.u.)       :      0.00000
Magnitude (Debye)      :      0.00000

Rotational constants in cm-1:     0.000000     0.000000     0.000000
Rotational constants in MHz :     0.000000     0.000000     0.000000

                             ****ORCA TERMINATED NORMALLY****
TOTAL RUN TIME: 0 days 0 hours 0 minutes 11 seconds 504 msec
