                         Program Version 4.2.0 -  RELEASE  -
|  1> #
|  2> # 48_Cd CCSD(T)/Def2-TZVP
|  3> #
|  4> ! CCSD(T) Def2-TZVP tightscf
|  5>
|  6> *xyz 0 1
|  7>  Cd 0.0 0.0 0.0
|  8> *
|  9>
| 10> %maxcore 5000
| 11>
| 12> %pal
| 13> nprocs 24
| 14> end
| 15>
| 16>
| 17>                          ****END OF INPUT****

CARTESIAN COORDINATES (ANGSTROEM)
---------------------------------
  Cd     0.000000    0.000000    0.000000

 Total Charge           Charge          ....    0
 Multiplicity           Mult            ....    1
 Number of Electrons    NEL             ....   20
 Basis Dimension        Dim             ....   40

ORBITAL ENERGIES
----------------

  NO   OCC          E(Eh)            E(eV)
   0   2.0000      -4.804015      -130.7239
   1   2.0000      -3.169594       -86.2490
   2   2.0000      -3.169594       -86.2490
   3   2.0000      -3.169594       -86.2490
   4   2.0000      -0.719898       -19.5894
   5   2.0000      -0.719898       -19.5894
   6   2.0000      -0.719898       -19.5894
   7   2.0000      -0.719898       -19.5894
   8   2.0000      -0.719898       -19.5894
   9   2.0000      -0.281039        -7.6475
  10   0.0000       0.057069         1.5529
  11   0.0000       0.057069         1.5529
  12   0.0000       0.057069         1.5529
  13   0.0000       0.224822         6.1177
  14   0.0000       0.363193         9.8830

E(0)                                       ...   -166.883922814
E(0)                                       ...   -166.883922814
E(CORR)                                    ...     -0.475702201
E(TOT)                                     ...   -167.359625015
E(CCSD(T))                                 ...   -167.368684300

MULLIKEN ATOMIC CHARGES
-----------------------
   0 Cd:    0.000000
Sum of atomic charges:    0.0000000

LOEWDIN ATOMIC CHARGES
----------------------
   0 Cd:   -0.000000

FINAL SINGLE POINT ENERGY      -167.368684299955

DIPOLE MOMENT
-------------
                                X             Y             Z
Electronic contribution:     -0.00000      -0.00000       0.00000
Nuclear contribution   :      0.00000       0.00000       0.00000
                        -----------------------------------------
Total Dipole Moment    :     -0.00000      -0.00000       0.00000
                        -----------------------------------------
Magnitude (a.u.)       :      0.00000
Magnitude (Debye)      :      0.00000

Rotational constants in cm-1:     0.000000     0.000000     0.000000
Rotational constants in MHz :     0.000000     0.000000     0.000000

                             ****ORCA TERMINATED NORMALLY****
TOTAL RUN TIME: 0 days 0 hours 0 minutes 7 seconds 247 msec
