                         Program Version 4.2.0 -  RELEASE  -
|  1> # input to generate an atomic fitting density for In
|  2> # this file is use internally by ORCA
|  3> #
|  4> # atomic ground state (S=2): 1s2 2s2 2p6 3s2 3p6 4s2 3d10 4p6 5s2 4d10 5p1
|  5> #
|  6> ! RHF AllowRHF def2-SVP def2/J  NoMulliken NoLoewdin NoMayer NoPrintMOs
|  7>
|  8> %output print[p_atomdensfit] 2 end
|  9>
| 10> %scf
| 11>   guess hcore
| 12>   maxiter 1000
| 13>   maxdisk 500000
| 14>   SCFMode Conventional
| 15>   lshift 1.000000
| 16>   hftyp rohf
| 17>   rohf_case sahf
| 18>   rohf_numop   2
| 19>   rohf_norb[1] 3
| 20>   rohf_nel[1]  1
| 21> end
| 22>
| 23> %basis
| 24>   NewECP 49
| 25>     N_core 28
| 26>     lmax f
| 27>     s 4
| 28>       1      15.3928220000    281.1223500000  2
| 29>       2       8.0558640000     61.9014700000  2
| 30>       3      12.5390560000     13.7280780000  2
| 31>       4      12.5525610000     18.2068660000  2
| 32>     p 6
| 33>       1      13.9286720000     67.4621540000  2
| 34>       2      13.3472340000    134.9492500000  2
| 35>       3       7.6141320000     14.7461400000  2
| 36>       4       7.3183650000     29.6392620000  2
| 37>       5      12.5390560000     13.7280780000  2
| 38>       6      12.5525610000     18.2068660000  2
| 39>     d 6
| 40>       1      14.0347150000     35.4932540000  2
| 41>       2      14.5116160000     53.1787730000  2
| 42>       3       5.5505500000      9.1772810000  2
| 43>       4       5.0594150000     12.3924100000  2
| 44>       5      12.5390560000     13.7280780000  2
| 45>       6      12.5525610000     18.2068660000  2
| 46>     f 2
| 47>       1      12.5390560000    -13.7280780000  2
| 48>       2      12.5525610000    -18.2068660000  2
| 49>   end
| 50>   NewGTO 49
| 51>     s 4
| 52>      1     847.7927677400      0.0001991321
| 53>      2      72.0410548240      0.0037802215
| 54>      3      41.0613165220     -0.0137092240
| 55>      4      12.4076097130      1.0083428725
| 56>     s 2
| 57>      1      11.6403169410      0.7070046123
| 58>      2       6.3695642727      0.3069946789
| 59>     s 1
| 60>      1       1.7063236353      1.0000000000
| 61>     s 1
| 62>      1       0.7866696794      1.0000000000
| 63>     s 1
| 64>      1       0.1696519687      1.0000000000
| 65>     s 1
| 66>      1       0.0620748587      1.0000000000
| 67>     p 3
| 68>      1     268.2813668500      0.0005395928
| 69>      2      14.7815537820      0.3636176018
| 70>      3       8.8041476194     -1.3245278979
| 71>     p 3
| 72>      1       2.3717277227      0.4522459931
| 73>      2       1.1927065422      0.4560012447
| 74>      3       0.5835281204      0.1590437856
| 75>     p 1
| 76>      1       0.2328096831      1.0000000000
| 77>     p 1
| 78>      1       0.0886740652      1.0000000000
| 79>     p 1
| 80>      1       0.0335988283      1.0000000000
| 81>   end
| 82>   NewAuxGTO 49
| 83>     S 1
| 84>      1 1310.72 1.0
| 85>     S 1
| 86>      1  655.36 1.0
| 87>     S 1
| 88>      1  327.68 1.0
| 89>     S 1
| 90>      1  163.84 1.0
| 91>     S 1
| 92>      1   81.82 1.0
| 93>     S 1
| 94>      1   40.96 1.0
| 95>     S 1
| 96>      1   20.48 1.0
| 97>     S 1
| 98>      1   10.24 1.0
| 99>     S 1
|100>      1    5.12 1.0
|101>     S 1
|102>      1    2.56 1.0
|103>     S 1
|104>      1    1.28 1.0
|105>     S 1
|106>      1    0.64 1.0
|107>     S 1
|108>      1    0.32 1.0
|109>     S 1
|110>      1    0.16 1.0
|111>     S 1
|112>      1    0.08 1.0
|113>     S 1
|114>      1    0.04 1.0
|115>     S 1
|116>      1    0.02 1.0
|117>     S 1
|118>      1    0.01 1.0
|119>   end
|120> end
|121>
|122> * xyz 0 2
|123> 49  0.0 0.0 0.0
|124> *
|125>
|126>
|127>                          ****END OF INPUT****

CARTESIAN COORDINATES (ANGSTROEM)
---------------------------------
  In     0.000000    0.000000    0.000000

 Total Charge           Charge          ....    0
 Multiplicity           Mult            ....    2
 Number of Electrons    NEL             ....   21
 Basis Dimension        Dim             ....   21

ORBITAL ENERGIES
----------------

  NO   OCC          E(Eh)            E(eV)
   0   2.0000      -9.353837      -254.5308
   1   2.0000      -7.245427      -197.1581
   2   2.0000      -7.245427      -197.1581
   3   2.0000      -7.240051      -197.0118
   4   2.0000      -2.254600       -61.3508
   5   2.0000      -1.330621       -36.2080
   6   2.0000      -1.330621       -36.2080
   7   2.0000      -1.310788       -35.6684
   8   2.0000      -0.369299       -10.0491
   9   2.0000      -0.152586        -4.1521
  10   0.3333      -0.198663        -5.4059
  11   0.3333      -0.198663        -5.4059
  12   0.3333       0.425348        11.5743
  13   0.0000       0.015709         0.4275
  14   0.0000       0.015709         0.4275
  15   0.0000       0.035586         0.9683
  16   0.0000      33.072044       899.9361
  17   0.0000      34.182342       930.1488

CleanUpVectors: The p-vectors have cracked symmetry
CleanUpVectors: The p-vectors have cracked symmetry
CleanUpVectors: The p-vectors have cracked symmetry
CleanUpVectors: The p-vectors have cracked symmetry
CleanUpVectors: The p-vectors have cracked symmetry
CleanUpVectors: The p-vectors have cracked symmetry
CleanUpVectors: The p-vectors have cracked symmetry
CleanUpVectors: The p-vectors have cracked symmetry
CleanUpVectors: The p-vectors have cracked symmetry
CleanUpVectors: The p-vectors have cracked symmetry
CleanUpVectors: The p-vectors have cracked symmetry
CleanUpVectors: The p-vectors have cracked symmetry
CleanUpVectors: The p-vectors have cracked symmetry
CleanUpVectors: The p-vectors have cracked symmetry
--------------------------
ATOM BASIS FOR ELEMENT In
--------------------------
 NewGTO In
 S 10
    1        847.792767740000         0.000341404978
    2         72.041054824000         0.006481056745
    3         41.061316522000        -0.023503982153
    4         12.407609713000         1.728768373680
    5         11.640316941000        -1.634371958383
    6          6.369564272700        -0.709674994813
    7          1.706323635300         1.233405240717
    8          0.786669679400         0.175558261438
    9          0.169651968700         0.003517779174
   10          0.062074858700        -0.001555683461
 P 19
    1        268.281366850000        -0.000103067866
    2         14.781553782000        -0.069454763671
    3          8.804147619400         0.252998676822
    4        268.281366850000         0.000031889835
    5         14.781553782000         0.021489732965
    6          8.804147619400        -0.078279353613
    7        268.281366850000         0.000003350030
    8         14.781553782000         0.002257498710
    9          8.804147619400        -0.008223254336
   10          2.371727722700        -0.493703126032
   11          1.192706542200        -0.497802619410
   12          0.583528120400        -0.173623238956
   13          2.371727722700         0.152754797249
   14          1.192706542200         0.154023205826
   15          0.583528120400         0.053720102762
   16          2.371727722700         0.016046907530
   17          1.192706542200         0.016180153984
   18          0.583528120400         0.005643302450
   19          0.232809683100         0.161472620908
 S 10
    1        847.792767740000         0.000267321221
    2         72.041054824000         0.005074688741
    3         41.061316522000        -0.018403695308
    4         12.407609713000         1.353631320892
    5         11.640316941000        -1.299036700290
    6          6.369564272700        -0.564066128773
    7          1.706323635300         1.933704364564
    8          0.786669679400        -1.148930406686
    9          0.169651968700        -0.922118432909
   10          0.062074858700         0.223287452251
 P 19
    1        268.281366850000        -0.000004777332
    2         14.781553782000        -0.003219320222
    3          8.804147619400         0.011726823522
    4        268.281366850000        -0.000036624767
    5         14.781553782000        -0.024680481202
    6          8.804147619400         0.089902099689
    7        268.281366850000        -0.000003515232
    8         14.781553782000        -0.002368823593
    9          8.804147619400         0.008628770770
   10          2.371727722700        -0.031016386345
   11          1.192706542200        -0.031273932760
   12          0.583528120400        -0.010907699737
   13          2.371727722700        -0.237782912991
   14          1.192706542200        -0.239757357603
   15          0.583528120400        -0.083622398452
   16          2.371727722700        -0.022822317348
   17          1.192706542200        -0.023011823822
   18          0.583528120400        -0.008026047334
   19          0.232809683100         0.181601067035
 S 10
    1        847.792767740000         0.001895684325
    2         72.041054824000         0.035986697491
    3         41.061316522000        -0.130508145337
    4         12.407609713000         9.599154419924
    5         11.640316941000        -7.848656624965
    6          6.369564272700        -3.408034089819
    7          1.706323635300         2.777524027550
    8          0.786669679400        -1.726126975424
    9          0.169651968700         0.507342523390
   10          0.062074858700        -0.203732589285
 P 19
    1        268.281366850000        -0.000036792941
    2         14.781553782000        -0.024793809118
    3          8.804147619400         0.090314912451
    4        268.281366850000         0.000004745863
    5         14.781553782000         0.003198113932
    6          8.804147619400        -0.011649576650
    7        268.281366850000         0.000000556428
    8         14.781553782000         0.000374962613
    9          8.804147619400        -0.001365853685
   10          2.371727722700        -0.238874765366
   11          1.192706542200        -0.240858276239
   12          0.583528120400        -0.084006376060
   13          2.371727722700         0.030812075364
   14          1.192706542200         0.031067925272
   15          0.583528120400         0.010835848593
   16          2.371727722700         0.003612559317
   17          1.192706542200         0.003642556419
   18          0.583528120400         0.001270448204
   19          0.232809683100         1.398612713803
 P 19
    1        268.281366850000        -0.000012539050
    2         14.781553782000        -0.008449740461
    3          8.804147619400         0.030779359730
    4        268.281366850000         0.000000278658
    5         14.781553782000         0.000187780273
    6          8.804147619400        -0.000684015870
    7        268.281366850000         0.000000060669
    8         14.781553782000         0.000040883072
    9          8.804147619400        -0.000148922300
   10          2.371727722700        -0.086791806817
   11          1.192706542200        -0.087512487766
   12          0.583528120400        -0.030522542435
   13          2.371727722700         0.001928791690
   14          1.192706542200         0.001944807527
   15          0.583528120400         0.000678308568
   16          2.371727722700         0.000419931917
   17          1.192706542200         0.000423418847
   18          0.583528120400         0.000147679720
   19          0.232809683100         0.891135179054
 P 19
    1        268.281366850000         0.000001098344
    2         14.781553782000         0.000740145869
    3          8.804147619400        -0.002696084697
    4        268.281366850000        -0.000012513105
    5         14.781553782000        -0.008432257174
    6          8.804147619400         0.030715674415
    7        268.281366850000        -0.000001208369
    8         14.781553782000        -0.000814288664
    9          8.804147619400         0.002966160184
   10          2.371727722700         0.007635789939
   11          1.192706542200         0.007699194177
   12          0.583528120400         0.002685319398
   13          2.371727722700        -0.086992236523
   14          1.192706542200        -0.087714581752
   15          0.583528120400        -0.030593028629
   16          2.371727722700        -0.008400691608
   17          1.192706542200        -0.008470447252
   18          0.583528120400        -0.002954316490
   19          0.232809683100        -0.100201606035
 P 19
    1        268.281366850000        -0.000383995054
    2         14.781553782000        -0.258764313860
    3          8.804147619400         0.942585152622
    4        268.281366850000        -0.000498542585
    5         14.781553782000        -0.335954925662
    6          8.804147619400         1.223762736659
    7        268.281366850000        -0.000046989499
    8         14.781553782000        -0.031665005464
    9          8.804147619400         0.115344204783
   10          2.371727722700        -0.144572868670
   11          1.192706542200        -0.145773338115
   12          0.583528120400        -0.050842719845
   13          2.371727722700        -0.187699635325
   14          1.192706542200        -0.189258210451
   15          0.583528120400        -0.066009342290
   16          2.371727722700        -0.017691391089
   17          1.192706542200        -0.017838292611
   18          0.583528120400        -0.006221626845
   19          0.232809683100         0.195301662186
 end
  // -----------------------------------------------
  // The basis set
  // -----------------------------------------------
  BAS[ATNO] = new BFNGauss[NSH];
  // Basis function   1 L = s
  InitBFNGauss(BAS[ATNO][  0]);
  BAS[ATNO][  0].l  = 0;
  BAS[ATNO][  0].ng = 10;
  BAS[ATNO][  0].a[  0] =       847.792767740000;     BAS[ATNO][  0].d[  0] =         0.000341404978;
  BAS[ATNO][  0].a[  1] =        72.041054824000;     BAS[ATNO][  0].d[  1] =         0.006481056745;
  BAS[ATNO][  0].a[  2] =        41.061316522000;     BAS[ATNO][  0].d[  2] =        -0.023503982153;
  BAS[ATNO][  0].a[  3] =        12.407609713000;     BAS[ATNO][  0].d[  3] =         1.728768373680;
  BAS[ATNO][  0].a[  4] =        11.640316941000;     BAS[ATNO][  0].d[  4] =        -1.634371958383;
  BAS[ATNO][  0].a[  5] =         6.369564272700;     BAS[ATNO][  0].d[  5] =        -0.709674994813;
  BAS[ATNO][  0].a[  6] =         1.706323635300;     BAS[ATNO][  0].d[  6] =         1.233405240717;
  BAS[ATNO][  0].a[  7] =         0.786669679400;     BAS[ATNO][  0].d[  7] =         0.175558261438;
  BAS[ATNO][  0].a[  8] =         0.169651968700;     BAS[ATNO][  0].d[  8] =         0.003517779174;
  BAS[ATNO][  0].a[  9] =         0.062074858700;     BAS[ATNO][  0].d[  9] =        -0.001555683461;

FINAL SINGLE POINT ENERGY      -169.082509115929

DIPOLE MOMENT
-------------
                                X             Y             Z
Electronic contribution:     -0.00000       0.00000      -0.00000
Nuclear contribution   :      0.00000       0.00000       0.00000
                        -----------------------------------------
Total Dipole Moment    :     -0.00000       0.00000      -0.00000
                        -----------------------------------------
Magnitude (a.u.)       :      0.00000
Magnitude (Debye)      :      0.00000

Rotational constants in cm-1:     0.000000     0.000000     0.000000
Rotational constants in MHz :     0.000000     0.000000     0.000000

                             ****ORCA TERMINATED NORMALLY****
TOTAL RUN TIME: 0 days 0 hours 0 minutes 1 seconds 81 msec
