                         Program Version 4.2.0 -  RELEASE  -
|  1> #
|  2> # 49_In CCSD(T)/Def2-TZVP
|  3> #
|  4> ! CCSD(T) Def2-TZVP tightscf
|  5>
|  6> *xyz 0 2
|  7>  In 0.0 0.0 0.0
|  8> *
|  9>
| 10> %maxcore 5000
| 11>
| 12> %pal
| 13> nprocs 24
| 14> end
| 15>
| 16>
| 17>                          ****END OF INPUT****

CARTESIAN COORDINATES (ANGSTROEM)
---------------------------------
  In     0.000000    0.000000    0.000000

 Total Charge           Charge          ....    0
 Multiplicity           Mult            ....    2
 Number of Electrons    NEL             ....   21
 Basis Dimension        Dim             ....   50

ORBITAL ENERGIES
----------------
                 SPIN UP ORBITALS
  NO   OCC          E(Eh)            E(eV)
   0   1.0000      -5.373403      -146.2177
   1   1.0000      -3.627452       -98.7080
   2   1.0000      -3.627452       -98.7080
   3   1.0000      -3.623507       -98.6006
   4   1.0000      -1.015058       -27.6211
   5   1.0000      -1.015058       -27.6211
   6   1.0000      -1.007960       -27.4280
   7   1.0000      -1.007960       -27.4280
   8   1.0000      -1.005756       -27.3680
   9   1.0000      -0.424273       -11.5450
  10   1.0000      -0.201069        -5.4714
  11   0.0000       0.012360         0.3363
  12   0.0000       0.012360         0.3363
  13   0.0000       0.132223         3.5980
  14   0.0000       0.149987         4.0813
  15   0.0000       0.149987         4.0813

                 SPIN DOWN ORBITALS
  NO   OCC          E(Eh)            E(eV)
   0   1.0000      -5.372733      -146.1995
   1   1.0000      -3.629234       -98.7565
   2   1.0000      -3.629234       -98.7565
   3   1.0000      -3.617739       -98.4437
   4   1.0000      -1.015786       -27.6409
   5   1.0000      -1.015786       -27.6409
   6   1.0000      -1.005230       -27.3537
   7   1.0000      -1.005230       -27.3537
   8   1.0000      -1.001920       -27.2636
   9   1.0000      -0.368757       -10.0344
  10   0.0000       0.020966         0.5705
  11   0.0000       0.020966         0.5705
  12   0.0000       0.048811         1.3282
  13   0.0000       0.153960         4.1895
  14   0.0000       0.153960         4.1895

E(0)                                       ...   -189.210033188
E(0)                                       ...   -189.210033188
E(CORR)                                    ...     -0.246012940
E(TOT)                                     ...   -189.456046128
E(CCSD(T))                                 ...   -189.462283386

MULLIKEN ATOMIC CHARGES AND SPIN DENSITIES
------------------------------------------
   0 In:    0.000000    1.000000
Sum of atomic charges       :    0.0000000

LOEWDIN ATOMIC CHARGES AND SPIN DENSITIES
-----------------------------------------
   0 In:   -0.000000    1.000000

FINAL SINGLE POINT ENERGY      -189.462283385782

DIPOLE MOMENT
-------------
                                X             Y             Z
Electronic contribution:      0.00000      -0.00000       0.00000
Nuclear contribution   :      0.00000       0.00000       0.00000
                        -----------------------------------------
Total Dipole Moment    :      0.00000      -0.00000       0.00000
                        -----------------------------------------
Magnitude (a.u.)       :      0.00000
Magnitude (Debye)      :      0.00000

Rotational constants in cm-1:     0.000000     0.000000     0.000000
Rotational constants in MHz :     0.000000     0.000000     0.000000

                             ****ORCA TERMINATED NORMALLY****
TOTAL RUN TIME: 0 days 0 hours 0 minutes 17 seconds 980 msec
