                         Program Version 4.2.0 -  RELEASE  -
|  1> # input to generate an atomic fitting density for Sn
|  2> # this file is use internally by ORCA
|  3> #
|  4> # atomic ground state (S=3): 1s2 2s2 2p6 3s2 3p6 4s2 3d10 4p6 5s2 4d10 5p2
|  5> #
|  6> ! RHF AllowRHF def2-SVP def2/J  NoMulliken NoLoewdin NoMayer NoPrintMOs
|  7>
|  8> %output print[p_atomdensfit] 2 end
|  9>
| 10> %scf
| 11>   guess hcore
| 12>   maxiter 1000
| 13>   maxdisk 500000
| 14>   SCFMode Conventional
| 15>   lshift 1.000000
| 16>   hftyp rohf
| 17>   rohf_case sahf
| 18>   rohf_numop   2
| 19>   rohf_norb[1] 3
| 20>   rohf_nel[1]  2
| 21> end
| 22>
| 23> %basis
| 24>   NewECP 50
| 25>     N_core 28
| 26>     lmax f
| 27>     s 4
| 28>       1      17.4204140000    279.9886820000  2
| 29>       2       7.6311550000     62.3778100000  2
| 30>       3      12.2823480000     12.5763330000  2
| 31>       4      12.2721500000     16.5959440000  2
| 32>     p 6
| 33>       1      16.1310240000     66.1625230000  2
| 34>       2      15.6280770000    132.1743960000  2
| 35>       3       7.3256080000     16.3394170000  2
| 36>       4       6.9425190000     32.4889590000  2
| 37>       5      12.2823480000     12.5763330000  2
| 38>       6      12.2721500000     16.5959440000  2
| 39>     d 6
| 40>       1      15.5149760000     36.3874410000  2
| 41>       2      15.1881600000     54.5078410000  2
| 42>       3       5.4560240000      8.6968230000  2
| 43>       4       5.3631050000     12.8402080000  2
| 44>       5      12.2823480000     12.5763330000  2
| 45>       6      12.2721500000     16.5959440000  2
| 46>     f 2
| 47>       1      12.2823480000    -12.5763330000  2
| 48>       2      12.2721500000    -16.5959440000  2
| 49>   end
| 50>   NewGTO 50
| 51>     s 4
| 52>      1    1577.0715931000      0.0003218419
| 53>      2     235.2660107800      0.0015384537
| 54>      3      38.2063306450     -0.0073758372
| 55>      4      13.0970317650      1.0055154359
| 56>     s 2
| 57>      1      11.6814927590      0.6809914776
| 58>      2       5.9647604361      0.3371650694
| 59>     s 1
| 60>      1       1.8891070740      1.0000000000
| 61>     s 1
| 62>      1       0.8851408063      1.0000000000
| 63>     s 1
| 64>      1       0.2050010515      1.0000000000
| 65>     s 1
| 66>      1       0.0767485510      1.0000000000
| 67>     p 3
| 68>      1     221.5576749600      0.0012361685
| 69>      2      21.0840214330      0.1235490029
| 70>      3       8.7600138521     -1.0950328657
| 71>     p 3
| 72>      1       2.5912909722      0.4264068280
| 73>      2       1.3426801157      0.4614253825
| 74>      3       0.6773273583      0.1761114631
| 75>     p 1
| 76>      1       0.2941875675      1.0000000000
| 77>     p 1
| 78>      1       0.1186376205      1.0000000000
| 79>     p 1
| 80>      1       0.0462157506      1.0000000000
| 81>   end
| 82>   NewAuxGTO 50
| 83>     S 1
| 84>      1 1310.72 1.0
| 85>     S 1
| 86>      1  655.36 1.0
| 87>     S 1
| 88>      1  327.68 1.0
| 89>     S 1
| 90>      1  163.84 1.0
| 91>     S 1
| 92>      1   81.82 1.0
| 93>     S 1
| 94>      1   40.96 1.0
| 95>     S 1
| 96>      1   20.48 1.0
| 97>     S 1
| 98>      1   10.24 1.0
| 99>     S 1
|100>      1    5.12 1.0
|101>     S 1
|102>      1    2.56 1.0
|103>     S 1
|104>      1    1.28 1.0
|105>     S 1
|106>      1    0.64 1.0
|107>     S 1
|108>      1    0.32 1.0
|109>     S 1
|110>      1    0.16 1.0
|111>     S 1
|112>      1    0.08 1.0
|113>     S 1
|114>      1    0.04 1.0
|115>     S 1
|116>      1    0.02 1.0
|117>     S 1
|118>      1    0.01 1.0
|119>   end
|120> end
|121>
|122> * xyz 0 3
|123> 50  0.0 0.0 0.0
|124> *
|125>
|126>
|127>                          ****END OF INPUT****

CARTESIAN COORDINATES (ANGSTROEM)
---------------------------------
  Sn     0.000000    0.000000    0.000000

 Total Charge           Charge          ....    0
 Multiplicity           Mult            ....    3
 Number of Electrons    NEL             ....   22
 Basis Dimension        Dim             ....   21

ORBITAL ENERGIES
----------------

  NO   OCC          E(Eh)            E(eV)
   0   2.0000      -9.980845      -271.5926
   1   2.0000      -7.806537      -212.4267
   2   2.0000      -7.806537      -212.4267
   3   2.0000      -7.801165      -212.2805
   4   2.0000      -2.471348       -67.2488
   5   2.0000      -1.532004       -41.6880
   6   2.0000      -1.532004       -41.6880
   7   2.0000      -1.514676       -41.2164
   8   2.0000      -0.411684       -11.2025
   9   2.0000      -0.179801        -4.8926
  10   0.6667      -0.230034        -6.2595
  11   0.6667      -0.230034        -6.2595
  12   0.6667       0.562492        15.3062
  13   0.0000       0.151157         4.1132
  14   0.0000       0.151157         4.1132
  15   0.0000       0.174196         4.7401
  16   0.0000      31.497230       857.0832
  17   0.0000      32.140216       874.5797

CleanUpVectors: The p-vectors have cracked symmetry
CleanUpVectors: The p-vectors have cracked symmetry
CleanUpVectors: The p-vectors have cracked symmetry
CleanUpVectors: The p-vectors have cracked symmetry
CleanUpVectors: The p-vectors have cracked symmetry
CleanUpVectors: The p-vectors have cracked symmetry
CleanUpVectors: The p-vectors have cracked symmetry
CleanUpVectors: The p-vectors have cracked symmetry
CleanUpVectors: The p-vectors have cracked symmetry
CleanUpVectors: The p-vectors have cracked symmetry
CleanUpVectors: The p-vectors have cracked symmetry
CleanUpVectors: The p-vectors have cracked symmetry
CleanUpVectors: The p-vectors have cracked symmetry
CleanUpVectors: The p-vectors have cracked symmetry
--------------------------
ATOM BASIS FOR ELEMENT Sn
--------------------------
 NewGTO Sn
 S 10
    1       1577.071593100000         0.000348911863
    2        235.266010780000         0.001667852279
    3         38.206330645000        -0.007996215216
    4         13.097031765000         1.090088841442
    5         11.681492759000        -1.156642111253
    6          5.964760436100        -0.572664020827
    7          1.889107074000         1.216500445071
    8          0.885140806300         0.217656004581
    9          0.205001051500         0.002013555941
   10          0.076748551000        -0.000789352088
 P 19
    1        221.557674960000        -0.000222899319
    2         21.084021433000        -0.022277698112
    3          8.760013852100         0.197450493585
    4        221.557674960000         0.000007754670
    5         21.084021433000         0.000775041396
    6          8.760013852100        -0.006869305142
    7        221.557674960000         0.000022037235
    8         21.084021433000         0.002202514003
    9          8.760013852100        -0.019521203438
   10          2.591290972200        -0.488227200777
   11          1.342680115700        -0.528322737987
   12          0.677327358300        -0.201644066202
   13          2.591290972200         0.016985430423
   14          1.342680115700         0.018380354664
   15          0.677327358300         0.007015199586
   16          2.591290972200         0.048269226060
   17          1.342680115700         0.052233324223
   18          0.677327358300         0.019935806525
   19          0.294187567500         0.188361202183
 S 10
    1       1577.071593100000         0.000280665204
    2        235.266010780000         0.001341622771
    3         38.206330645000        -0.006432167017
    4         13.097031765000         0.876869031456
    5         11.681492759000        -0.951051550631
    6          5.964760436100        -0.470874265860
    7          1.889107074000         1.947412710378
    8          0.885140806300        -1.055753487741
    9          0.205001051500        -0.983835630991
   10          0.076748551000         0.222928143897
 P 19
    1        221.557674960000        -0.000014153772
    2         21.084021433000        -0.001414600340
    3          8.760013852100         0.012537809518
    4        221.557674960000        -0.000008889863
    5         21.084021433000        -0.000888498424
    6          8.760013852100         0.007874891363
    7        221.557674960000        -0.000083968012
    8         21.084021433000        -0.008392192587
    9          8.760013852100         0.074381229163
   10          2.591290972200        -0.043532668300
   11          1.342680115700        -0.047107777837
   12          0.677327358300        -0.017979547708
   13          2.591290972200        -0.027342498157
   14          1.342680115700        -0.029587994005
   15          0.677327358300        -0.011292800769
   16          2.591290972200        -0.258259895583
   17          1.342680115700        -0.279469425157
   18          0.677327358300        -0.106664633596
   19          0.294187567500         0.239859086006
 S 10
    1       1577.071593100000         0.002268317183
    2        235.266010780000         0.010842904428
    3         38.206330645000        -0.051984338455
    4         13.097031765000         7.086796159424
    5         11.681492759000        -6.070906238276
    6          5.964760436100        -3.005760850875
    7          1.889107074000         3.350453406189
    8          0.885140806300        -2.089488017869
    9          0.205001051500         0.629974044197
   10          0.076748551000        -0.247451207833
 P 19
    1        221.557674960000        -0.000084412758
    2         21.084021433000        -0.008436642771
    3          8.760013852100         0.074775197643
    4        221.557674960000         0.000003542093
    5         21.084021433000         0.000354014864
    6          8.760013852100        -0.003137685467
    7        221.557674960000         0.000013853730
    8         21.084021433000         0.001384612658
    9          8.760013852100        -0.012272024310
   10          2.591290972200        -0.259627797937
   11          1.342680115700        -0.280949666151
   12          0.677327358300        -0.107229594729
   13          2.591290972200         0.010894392713
   14          1.342680115700         0.011789092000
   15          0.677327358300         0.004499523259
   16          2.591290972200         0.042609832516
   17          1.342680115700         0.046109154394
   18          0.677327358300         0.017598404749
   19          0.294187567500         1.430513881789
 P 19
    1        221.557674960000        -0.000030028739
    2         21.084021433000        -0.003001225761
    3          8.760013852100         0.026600302459
    4        221.557674960000         0.000000749255
    5         21.084021433000         0.000074884333
    6          8.760013852100        -0.000663710786
    7        221.557674960000         0.000000280633
    8         21.084021433000         0.000028047873
    9          8.760013852100        -0.000248592399
   10          2.591290972200        -0.099464911131
   11          1.342680115700        -0.107633442174
   12          0.677327358300        -0.041080277979
   13          2.591290972200         0.002481773824
   14          1.342680115700         0.002685588881
   15          0.677327358300         0.001025004270
   16          2.591290972200         0.000929546604
   17          1.342680115700         0.001005885388
   18          0.677327358300         0.000383914613
   19          0.294187567500         0.932584638080
 P 19
    1        221.557674960000        -0.000032565794
    2         21.084021433000        -0.003254792064
    3          8.760013852100         0.028847697656
    4        221.557674960000        -0.000000622051
    5         21.084021433000        -0.000062170932
    6          8.760013852100         0.000551030051
    7        221.557674960000        -0.000012748855
    8         21.084021433000        -0.001274185815
    9          8.760013852100         0.011293295067
   10          2.591290972200        -0.108605191503
   11          1.342680115700        -0.117524365794
   12          0.677327358300        -0.044855330450
   13          2.591290972200        -0.002074506081
   14          1.342680115700        -0.002244874376
   15          0.677327358300        -0.000856797493
   16          2.591290972200        -0.042516754301
   17          1.342680115700        -0.046008432154
   18          0.677327358300        -0.017559962258
   19          0.294187567500         1.346869739900
 P 19
    1        221.557674960000        -0.001403063244
    2         21.084021433000        -0.140229317308
    3          8.760013852100         1.242872929625
    4        221.557674960000         0.000081312797
    5         21.084021433000         0.008126816840
    6          8.760013852100        -0.072029165146
    7        221.557674960000         0.000434428304
    8         21.084021433000         0.043418986820
    9          8.760013852100        -0.384828824571
   10          2.591290972200        -0.248102231613
   11          1.342680115700        -0.268477565564
   12          0.677327358300        -0.102469388712
   13          2.591290972200         0.014378458319
   14          1.342680115700         0.015559285625
   15          0.677327358300         0.005938486828
   16          2.591290972200         0.076819510579
   17          1.342680115700         0.083128293744
   18          0.677327358300         0.031727438480
   19          0.294187567500         0.410843301113
 end
  // -----------------------------------------------
  // The basis set
  // -----------------------------------------------
  BAS[ATNO] = new BFNGauss[NSH];
  // Basis function   1 L = s
  InitBFNGauss(BAS[ATNO][  0]);
  BAS[ATNO][  0].l  = 0;
  BAS[ATNO][  0].ng = 10;
  BAS[ATNO][  0].a[  0] =      1577.071593100000;     BAS[ATNO][  0].d[  0] =         0.000348911863;
  BAS[ATNO][  0].a[  1] =       235.266010780000;     BAS[ATNO][  0].d[  1] =         0.001667852279;
  BAS[ATNO][  0].a[  2] =        38.206330645000;     BAS[ATNO][  0].d[  2] =        -0.007996215216;
  BAS[ATNO][  0].a[  3] =        13.097031765000;     BAS[ATNO][  0].d[  3] =         1.090088841442;
  BAS[ATNO][  0].a[  4] =        11.681492759000;     BAS[ATNO][  0].d[  4] =        -1.156642111253;
  BAS[ATNO][  0].a[  5] =         5.964760436100;     BAS[ATNO][  0].d[  5] =        -0.572664020827;
  BAS[ATNO][  0].a[  6] =         1.889107074000;     BAS[ATNO][  0].d[  6] =         1.216500445071;
  BAS[ATNO][  0].a[  7] =         0.885140806300;     BAS[ATNO][  0].d[  7] =         0.217656004581;
  BAS[ATNO][  0].a[  8] =         0.205001051500;     BAS[ATNO][  0].d[  8] =         0.002013555941;
  BAS[ATNO][  0].a[  9] =         0.076748551000;     BAS[ATNO][  0].d[  9] =        -0.000789352088;

FINAL SINGLE POINT ENERGY      -188.876728764354

DIPOLE MOMENT
-------------
                                X             Y             Z
Electronic contribution:      0.00000       0.00000      -0.00000
Nuclear contribution   :      0.00000       0.00000       0.00000
                        -----------------------------------------
Total Dipole Moment    :      0.00000       0.00000      -0.00000
                        -----------------------------------------
Magnitude (a.u.)       :      0.00000
Magnitude (Debye)      :      0.00000

Rotational constants in cm-1:     0.000000     0.000000     0.000000
Rotational constants in MHz :     0.000000     0.000000     0.000000

                             ****ORCA TERMINATED NORMALLY****
TOTAL RUN TIME: 0 days 0 hours 0 minutes 1 seconds 25 msec
