                         Program Version 4.2.0 -  RELEASE  -
|  1> #
|  2> # 50_Sn CCSD(T)/Def2-TZVP
|  3> #
|  4> ! CCSD(T) Def2-TZVP tightscf
|  5>
|  6> *xyz 0 3
|  7>  Sn 0.0 0.0 0.0
|  8> *
|  9>
| 10> %maxcore 5000
| 11>
| 12> %pal
| 13> nprocs 24
| 14> end
| 15>
| 16>
| 17>                          ****END OF INPUT****

CARTESIAN COORDINATES (ANGSTROEM)
---------------------------------
  Sn     0.000000    0.000000    0.000000

 Total Charge           Charge          ....    0
 Multiplicity           Mult            ....    3
 Number of Electrons    NEL             ....   22
 Basis Dimension        Dim             ....   50

ORBITAL ENERGIES
----------------
                 SPIN UP ORBITALS
  NO   OCC          E(Eh)            E(eV)
   0   1.0000      -5.859523      -159.4457
   1   1.0000      -4.048007      -110.1519
   2   1.0000      -4.044210      -110.0485
   3   1.0000      -4.044210      -110.0485
   4   1.0000      -1.315171       -35.7876
   5   1.0000      -1.312243       -35.7079
   6   1.0000      -1.312243       -35.7079
   7   1.0000      -1.303905       -35.4811
   8   1.0000      -1.303905       -35.4811
   9   1.0000      -0.573694       -15.6110
  10   1.0000      -0.266707        -7.2575
  11   1.0000      -0.266707        -7.2575
  12   0.0000      -0.015871        -0.4319
  13   0.0000       0.171253         4.6600
  14   0.0000       0.171253         4.6600
  15   0.0000       0.185895         5.0585
  16   0.0000       0.263111         7.1596

                 SPIN DOWN ORBITALS
  NO   OCC          E(Eh)            E(eV)
   0   1.0000      -5.854360      -159.3052
   1   1.0000      -4.050361      -110.2159
   2   1.0000      -4.034981      -109.7974
   3   1.0000      -4.034981      -109.7974
   4   1.0000      -1.312788       -35.7228
   5   1.0000      -1.308159       -35.5968
   6   1.0000      -1.308159       -35.5968
   7   1.0000      -1.294824       -35.2339
   8   1.0000      -1.294824       -35.2339
   9   1.0000      -0.441800       -12.0220
  10   0.0000       0.005770         0.1570
  11   0.0000       0.041176         1.1205
  12   0.0000       0.041176         1.1205
  13   0.0000       0.194335         5.2881
  14   0.0000       0.221105         6.0166

E(0)                                       ...   -213.339916635
E(0)                                       ...   -213.339916635
E(CORR)                                    ...     -0.261579707
E(TOT)                                     ...   -213.601496342
E(CCSD(T))                                 ...   -213.607483764

MULLIKEN ATOMIC CHARGES AND SPIN DENSITIES
------------------------------------------
   0 Sn:   -0.000000    2.000000
Sum of atomic charges       :   -0.0000000

LOEWDIN ATOMIC CHARGES AND SPIN DENSITIES
-----------------------------------------
   0 Sn:   -0.000000    2.000000

FINAL SINGLE POINT ENERGY      -213.607483763501

DIPOLE MOMENT
-------------
                                X             Y             Z
Electronic contribution:     -0.00000      -0.00000      -0.00000
Nuclear contribution   :      0.00000       0.00000       0.00000
                        -----------------------------------------
Total Dipole Moment    :     -0.00000      -0.00000      -0.00000
                        -----------------------------------------
Magnitude (a.u.)       :      0.00000
Magnitude (Debye)      :      0.00000

Rotational constants in cm-1:     0.000000     0.000000     0.000000
Rotational constants in MHz :     0.000000     0.000000     0.000000

                             ****ORCA TERMINATED NORMALLY****
TOTAL RUN TIME: 0 days 0 hours 0 minutes 18 seconds 67 msec
