                         Program Version 4.2.0 -  RELEASE  -
|  1> #
|  2> # 51_Sb CCSD(T)/Def2-TZVP
|  3> #
|  4> ! CCSD(T) Def2-TZVP tightscf
|  5>
|  6> *xyz 0 4
|  7>  Sb 0.0 0.0 0.0
|  8> *
|  9>
| 10> %maxcore 5000
| 11>
| 12> %pal
| 13> nprocs 24
| 14> end
| 15>
| 16>
| 17>                          ****END OF INPUT****

CARTESIAN COORDINATES (ANGSTROEM)
---------------------------------
  Sb     0.000000    0.000000    0.000000

 Total Charge           Charge          ....    0
 Multiplicity           Mult            ....    4
 Number of Electrons    NEL             ....   23
 Basis Dimension        Dim             ....   50

ORBITAL ENERGIES
----------------
                 SPIN UP ORBITALS
  NO   OCC          E(Eh)            E(eV)
   0   1.0000      -6.524951      -177.5529
   1   1.0000      -4.592072      -124.9566
   2   1.0000      -4.592072      -124.9566
   3   1.0000      -4.592072      -124.9566
   4   1.0000      -1.619459       -44.0677
   5   1.0000      -1.619459       -44.0677
   6   1.0000      -1.619459       -44.0677
   7   1.0000      -1.619459       -44.0677
   8   1.0000      -1.619459       -44.0677
   9   1.0000      -0.731325       -19.9004
  10   1.0000      -0.334101        -9.0913
  11   1.0000      -0.334101        -9.0913
  12   1.0000      -0.334101        -9.0913
  13   0.0000       0.195020         5.3068
  14   0.0000       0.195020         5.3068
  15   0.0000       0.195020         5.3068
  16   0.0000       0.280716         7.6387
  17   0.0000       0.280716         7.6387

                 SPIN DOWN ORBITALS
  NO   OCC          E(Eh)            E(eV)
   0   1.0000      -6.512787      -177.2220
   1   1.0000      -4.579792      -124.6225
   2   1.0000      -4.579792      -124.6225
   3   1.0000      -4.579792      -124.6225
   4   1.0000      -1.607730       -43.7485
   5   1.0000      -1.607730       -43.7485
   6   1.0000      -1.607730       -43.7485
   7   1.0000      -1.607730       -43.7485
   8   1.0000      -1.607730       -43.7485
   9   1.0000      -0.507679       -13.8146
  10   0.0000       0.027389         0.7453
  11   0.0000       0.027389         0.7453
  12   0.0000       0.027389         0.7453
  13   0.0000       0.246773         6.7150
  14   0.0000       0.246773         6.7150

E(0)                                       ...   -239.277272809
E(0)                                       ...   -239.277272809
E(CORR)                                    ...     -0.279058829
E(TOT)                                     ...   -239.556331638
E(CCSD(T))                                 ...   -239.562396005

MULLIKEN ATOMIC CHARGES AND SPIN DENSITIES
------------------------------------------
   0 Sb:   -0.000000    3.000000
Sum of atomic charges       :   -0.0000000

LOEWDIN ATOMIC CHARGES AND SPIN DENSITIES
-----------------------------------------
   0 Sb:   -0.000000    3.000000

FINAL SINGLE POINT ENERGY      -239.562396005114

DIPOLE MOMENT
-------------
                                X             Y             Z
Electronic contribution:      0.00000      -0.00000       0.00000
Nuclear contribution   :      0.00000       0.00000       0.00000
                        -----------------------------------------
Total Dipole Moment    :      0.00000      -0.00000       0.00000
                        -----------------------------------------
Magnitude (a.u.)       :      0.00000
Magnitude (Debye)      :      0.00000

Rotational constants in cm-1:     0.000000     0.000000     0.000000
Rotational constants in MHz :     0.000000     0.000000     0.000000

                             ****ORCA TERMINATED NORMALLY****
TOTAL RUN TIME: 0 days 0 hours 0 minutes 12 seconds 643 msec
