                         Program Version 4.2.0 -  RELEASE  -
|  1> # input to generate an atomic fitting density for Sb
|  2> # this file is use internally by ORCA
|  3> #
|  4> # atomic ground state (S=4): 1s2 2s2 2p6 3s2 3p6 4s2 3d10 4p6 5s2 4d10 5p3
|  5> #
|  6> ! RHF AllowRHF def2-SVP def2/J  NoMulliken NoLoewdin NoMayer NoPrintMOs
|  7>
|  8> %output print[p_atomdensfit] 2 end
|  9>
| 10> %scf
| 11>   guess hcore
| 12>   maxiter 1000
| 13>   maxdisk 500000
| 14>   SCFMode Conventional
| 15>   lshift 1.000000
| 16>   hftyp rohf
| 17>   rohf_case sahf
| 18>   rohf_numop   2
| 19>   rohf_norb[1] 3
| 20>   rohf_nel[1]  3
| 21> end
| 22>
| 23> %basis
| 24>   NewECP 51
| 25>     N_core 28
| 26>     lmax f
| 27>     s 4
| 28>       1      16.3308650000    281.0715810000  2
| 29>       2       8.5565420000     61.7166040000  2
| 30>       3      14.4449780000     15.3668010000  2
| 31>       4      14.4492950000     20.2961380000  2
| 32>     p 6
| 33>       1      14.4703370000     67.4573800000  2
| 34>       2      13.8161940000    134.9335030000  2
| 35>       3       8.4249240000     14.7163440000  2
| 36>       4       8.0927280000     29.5185120000  2
| 37>       5      14.4449780000     15.3668010000  2
| 38>       6      14.4492950000     20.2961380000  2
| 39>     d 6
| 40>       1      14.8863310000     35.4478150000  2
| 41>       2      15.1463190000     53.1434660000  2
| 42>       3       5.9082670000      9.1792230000  2
| 43>       4       5.5943220000     13.2402530000  2
| 44>       5      14.4449780000     15.3668010000  2
| 45>       6      14.4492950000     20.2961380000  2
| 46>     f 2
| 47>       1      14.4449780000    -15.3668010000  2
| 48>       2      14.4492950000    -20.2961380000  2
| 49>   end
| 50>   NewGTO 51
| 51>     s 4
| 52>      1    1612.4199933000      0.0007372999
| 53>      2     238.8445209700      0.0034600912
| 54>      3      23.9981188090     -0.1275872306
| 55>      4      15.1931242130      1.1209761019
| 56>     s 2
| 57>      1      11.7364097330      0.5460510418
| 58>      2       6.5259774794      0.4696473608
| 59>     s 1
| 60>      1       2.0247451872      1.0000000000
| 61>     s 1
| 62>      1       0.9711341859      1.0000000000
| 63>     s 1
| 64>      1       0.2425433400      1.0000000000
| 65>     s 1
| 66>      1       0.0922066082      1.0000000000
| 67>     p 3
| 68>      1     215.6839335400      0.0012613511
| 69>      2      16.3744790880      0.3569688834
| 70>      3       9.7216283345     -1.3183963636
| 71>     p 3
| 72>      1       2.7982643154      0.4267498157
| 73>      2       1.4711045033      0.4624851698
| 74>      3       0.7516538530      0.1717797266
| 75>     p 1
| 76>      1       0.3316869985      1.0000000000
| 77>     p 1
| 78>      1       0.1393160637      1.0000000000
| 79>     p 1
| 80>      1       0.0563993075      1.0000000000
| 81>   end
| 82>   NewAuxGTO 51
| 83>     S 1
| 84>      1 1310.72 1.0
| 85>     S 1
| 86>      1  655.36 1.0
| 87>     S 1
| 88>      1  327.68 1.0
| 89>     S 1
| 90>      1  163.84 1.0
| 91>     S 1
| 92>      1   81.82 1.0
| 93>     S 1
| 94>      1   40.96 1.0
| 95>     S 1
| 96>      1   20.48 1.0
| 97>     S 1
| 98>      1   10.24 1.0
| 99>     S 1
|100>      1    5.12 1.0
|101>     S 1
|102>      1    2.56 1.0
|103>     S 1
|104>      1    1.28 1.0
|105>     S 1
|106>      1    0.64 1.0
|107>     S 1
|108>      1    0.32 1.0
|109>     S 1
|110>      1    0.16 1.0
|111>     S 1
|112>      1    0.08 1.0
|113>     S 1
|114>      1    0.04 1.0
|115>     S 1
|116>      1    0.02 1.0
|117>     S 1
|118>      1    0.01 1.0
|119>   end
|120> end
|121>
|122> * xyz 0 4
|123> 51  0.0 0.0 0.0
|124> *
|125>
|126>
|127>                          ****END OF INPUT****

CARTESIAN COORDINATES (ANGSTROEM)
---------------------------------
  Sb     0.000000    0.000000    0.000000

 Total Charge           Charge          ....    0
 Multiplicity           Mult            ....    4
 Number of Electrons    NEL             ....   23
 Basis Dimension        Dim             ....   21

ORBITAL ENERGIES
----------------

  NO   OCC          E(Eh)            E(eV)
   0   2.0000     -10.897683      -296.5410
   1   2.0000      -8.591736      -233.7930
   2   2.0000      -8.591736      -233.7930
   3   2.0000      -8.587087      -233.6665
   4   2.0000      -2.726909       -74.2030
   5   2.0000      -1.724143       -46.9163
   6   2.0000      -1.724143       -46.9163
   7   2.0000      -1.709932       -46.5296
   8   2.0000      -0.468270       -12.7423
   9   2.0000      -0.204255        -5.5581
  10   1.0000      -0.257173        -6.9980
  11   1.0000      -0.257173        -6.9980
  12   1.0000       0.681288        18.5388
  13   0.0000       0.287176         7.8145
  14   0.0000       0.287176         7.8145
  15   0.0000       0.310881         8.4595
  16   0.0000      34.355173       934.8518
  17   0.0000      34.355173       934.8518

CleanUpVectors: The p-vectors have cracked symmetry
CleanUpVectors: The p-vectors have cracked symmetry
CleanUpVectors: The p-vectors have cracked symmetry
CleanUpVectors: The p-vectors have cracked symmetry
CleanUpVectors: The p-vectors have cracked symmetry
CleanUpVectors: The p-vectors have cracked symmetry
CleanUpVectors: The p-vectors have cracked symmetry
CleanUpVectors: The p-vectors have cracked symmetry
CleanUpVectors: The p-vectors have cracked symmetry
CleanUpVectors: The p-vectors have cracked symmetry
CleanUpVectors: The p-vectors have cracked symmetry
CleanUpVectors: The p-vectors have cracked symmetry
CleanUpVectors: The p-vectors have cracked symmetry
CleanUpVectors: The p-vectors have cracked symmetry
CleanUpVectors: The p-vectors have cracked symmetry
--------------------------
ATOM BASIS FOR ELEMENT Sb
--------------------------
 NewGTO Sb
 S 10
    1       1612.419993300000         0.000483055168
    2        238.844520970000         0.002266940407
    3         23.998118809000        -0.083591047661
    4         15.193124213000         0.734427468325
    5         11.736409733000        -0.709919899418
    6          6.525977479400        -0.610587622069
    7          2.024745187200         1.234029530306
    8          0.971134185900         0.214849702976
    9          0.242543340000         0.003360035439
   10          0.092206608200        -0.001018366672
 P 19
    1        215.683933540000        -0.000016201342
    2         16.374479088000        -0.004585063683
    3          9.721628334500         0.016934056629
    4        215.683933540000         0.000027944804
    5         16.374479088000         0.007908524032
    6          9.721628334500        -0.029208622402
    7        215.683933540000        -0.000262620506
    8         16.374479088000        -0.074322961263
    9          9.721628334500         0.274497656288
   10          2.798264315400        -0.030494500325
   11          1.471104503300        -0.033048061515
   12          0.751653853000        -0.012274960026
   13          2.798264315400         0.052598285505
   14          1.471104503300         0.057002782680
   15          0.751653853000         0.021172403060
   16          2.798264315400        -0.494309724613
   17          1.471104503300        -0.535702438550
   18          0.751653853000        -0.198974636252
   19          0.331686998500         0.011732469520
 S 10
    1       1612.419993300000         0.000377154740
    2        238.844520970000         0.001769957920
    3         23.998118809000        -0.065265340187
    4         15.193124213000         0.573418564604
    5         11.736409733000        -0.577854587951
    6          6.525977479400        -0.497000942005
    7          2.024745187200         1.953329333892
    8          0.971134185900        -0.983549463440
    9          0.242543340000        -1.041042190122
   10          0.092206608200         0.219150422523
 P 19
    1        215.683933540000        -0.000088062088
    2         16.374479088000        -0.024922026202
    3          9.721628334500         0.092044741843
    4        215.683933540000         0.000061493518
    5         16.374479088000         0.017402983624
    6          9.721628334500        -0.064274594768
    7        215.683933540000        -0.000007644114
    8         16.374479088000        -0.002163323733
    9          9.721628334500         0.007989822856
   10          2.798264315400        -0.229476747858
   11          1.471104503300        -0.248692767504
   12          0.751653853000        -0.092371341610
   13          2.798264315400         0.160242993590
   14          1.471104503300         0.173661488238
   15          0.751653853000         0.064502658503
   16          2.798264315400        -0.019919427532
   17          1.471104503300        -0.021587448865
   18          0.751653853000        -0.008018172919
   19          0.331686998500         1.219281767854
 S 10
    1       1612.419993300000         0.003259366737
    2        238.844520970000         0.015295955099
    3         23.998118809000        -0.564022286600
    4         15.193124213000         4.955476353270
    5         11.736409733000        -3.446588171954
    6          6.525977479400        -2.964340171181
    7          2.024745187200         3.418307637156
    8          0.971134185900        -2.224141216244
    9          0.242543340000         0.690537917311
   10          0.092206608200        -0.262904641360
 S 10
    1       1612.419993300000         0.002633390328
    2        238.844520970000         0.012358296399
    3         23.998118809000        -0.455699205993
    4         15.193124213000         4.003754272043
    5         11.736409733000        -1.779206953930
    6          6.525977479400        -1.530259602611
    7          2.024745187200         1.149810483257
    8          0.971134185900        -0.685093222482
    9          0.242543340000         0.202047792353
   10          0.092206608200        -0.076433183757
 P 19
    1        215.683933540000         0.000009488997
    2         16.374479088000         0.002685435124
    3          9.721628334500        -0.009918141515
    4        215.683933540000         0.000000255525
    5         16.374479088000         0.000072314836
    6          9.721628334500        -0.000267081029
    7        215.683933540000        -0.000107260012
    8         16.374479088000        -0.030355138072
    9          9.721628334500         0.112110902411
   10          2.798264315400         0.024726918824
   11          1.471104503300         0.026797511868
   12          0.751653853000         0.009953333778
   13          2.798264315400         0.000665859718
   14          1.471104503300         0.000721617757
   15          0.751653853000         0.000268028705
   16          2.798264315400        -0.279503693199
   17          1.471104503300        -0.302908890064
   18          0.751653853000        -0.112508702371
   19          0.331686998500        -0.131381857108
 P 19
    1        215.683933540000        -0.000031598821
    2         16.374479088000        -0.008942629825
    3          9.721628334500         0.033027894559
    4        215.683933540000         0.000021749491
    5         16.374479088000         0.006155218518
    6          9.721628334500        -0.022733123500
    7        215.683933540000         0.000002218333
    8         16.374479088000         0.000627799686
    9          9.721628334500        -0.002318658184
   10          2.798264315400        -0.088514767483
   11          1.471104503300        -0.095926854009
   12          0.751653853000        -0.035629874926
   13          2.798264315400         0.060924777907
   14          1.471104503300         0.066026522376
   15          0.751653853000         0.024524068452
   16          2.798264315400         0.006214004640
   17          1.471104503300         0.006734355553
   18          0.751653853000         0.002501325083
   19          0.331686998500         0.795577277630
 P 19
    1        215.683933540000         0.000021233781
    2         16.374479088000         0.006009269912
    3          9.721628334500        -0.022194090210
    4        215.683933540000        -0.000012168892
    5         16.374479088000        -0.003443859284
    6          9.721628334500         0.012719236234
    7        215.683933540000        -0.000039912906
    8         16.374479088000        -0.011295558769
    9          9.721628334500         0.041717988032
   10          2.798264315400         0.060344527175
   11          1.471104503300         0.065397682366
   12          0.751653853000         0.024290499957
   13          2.798264315400        -0.034582913257
   14          1.471104503300        -0.037478831675
   15          0.751653853000        -0.013920670064
   16          2.798264315400        -0.113428946111
   17          1.471104503300        -0.122927306522
   18          0.751653853000        -0.045658586447
   19          0.331686998500        -0.736876541481
 P 19
    1        215.683933540000        -0.001175835143
    2         16.374479088000        -0.332767425394
    3          9.721628334500         1.229012902709
    4        215.683933540000         0.000844475730
    5         16.374479088000         0.238990998025
    6          9.721628334500        -0.882667586397
    7        215.683933540000        -0.000469481650
    8         16.374479088000        -0.132865734423
    9          9.721628334500         0.490714202993
   10          2.798264315400        -0.207790750985
   11          1.471104503300        -0.225190819578
   12          0.751653853000        -0.083642071024
   13          2.798264315400         0.149233714507
   14          1.471104503300         0.161730309550
   15          0.751653853000         0.060071090213
   16          2.798264315400        -0.082965664994
   17          1.471104503300        -0.089913078461
   18          0.751653853000        -0.033396193098
   19          0.331686998500         0.360808526636
 end
  // -----------------------------------------------
  // The basis set
  // -----------------------------------------------
  BAS[ATNO] = new BFNGauss[NSH];
  // Basis function   1 L = s
  InitBFNGauss(BAS[ATNO][  0]);
  BAS[ATNO][  0].l  = 0;
  BAS[ATNO][  0].ng = 10;
  BAS[ATNO][  0].a[  0] =      1612.419993300000;     BAS[ATNO][  0].d[  0] =         0.000483055168;
  BAS[ATNO][  0].a[  1] =       238.844520970000;     BAS[ATNO][  0].d[  1] =         0.002266940407;
  BAS[ATNO][  0].a[  2] =        23.998118809000;     BAS[ATNO][  0].d[  2] =        -0.083591047661;
  BAS[ATNO][  0].a[  3] =        15.193124213000;     BAS[ATNO][  0].d[  3] =         0.734427468325;
  BAS[ATNO][  0].a[  4] =        11.736409733000;     BAS[ATNO][  0].d[  4] =        -0.709919899418;
  BAS[ATNO][  0].a[  5] =         6.525977479400;     BAS[ATNO][  0].d[  5] =        -0.610587622069;
  BAS[ATNO][  0].a[  6] =         2.024745187200;     BAS[ATNO][  0].d[  6] =         1.234029530306;
  BAS[ATNO][  0].a[  7] =         0.971134185900;     BAS[ATNO][  0].d[  7] =         0.214849702976;
  BAS[ATNO][  0].a[  8] =         0.242543340000;     BAS[ATNO][  0].d[  8] =         0.003360035439;
  BAS[ATNO][  0].a[  9] =         0.092206608200;     BAS[ATNO][  0].d[  9] =        -0.001018366672;

FINAL SINGLE POINT ENERGY      -209.532120943078

DIPOLE MOMENT
-------------
                                X             Y             Z
Electronic contribution:     -0.00000      -0.00000       0.00000
Nuclear contribution   :      0.00000       0.00000       0.00000
                        -----------------------------------------
Total Dipole Moment    :     -0.00000      -0.00000       0.00000
                        -----------------------------------------
Magnitude (a.u.)       :      0.00000
Magnitude (Debye)      :      0.00000

Rotational constants in cm-1:     0.000000     0.000000     0.000000
Rotational constants in MHz :     0.000000     0.000000     0.000000

                             ****ORCA TERMINATED NORMALLY****
TOTAL RUN TIME: 0 days 0 hours 0 minutes 0 seconds 925 msec
