                         Program Version 4.2.0 -  RELEASE  -
|  1> # input to generate an atomic fitting density for Te
|  2> # this file is use internally by ORCA
|  3> #
|  4> # atomic ground state (S=3): 1s2 2s2 2p6 3s2 3p6 4s2 3d10 4p6 5s2 4d10 5p4
|  5> #
|  6> ! RHF AllowRHF def2-SVP def2/J  NoMulliken NoLoewdin NoMayer NoPrintMOs
|  7>
|  8> %output print[p_atomdensfit] 2 end
|  9>
| 10> %scf
| 11>   guess hcore
| 12>   maxiter 1000
| 13>   maxdisk 500000
| 14>   SCFMode Conventional
| 15>   lshift 1.000000
| 16>   hftyp rohf
| 17>   rohf_case sahf
| 18>   rohf_numop   2
| 19>   rohf_norb[1] 3
| 20>   rohf_nel[1]  4
| 21> end
| 22>
| 23> %basis
| 24>   NewECP 52
| 25>     N_core 28
| 26>     lmax f
| 27>     s 4
| 28>       1      16.8144730000    281.0458430000  2
| 29>       2       8.7935260000     61.6206560000  2
| 30>       3      15.2061680000     15.7454500000  2
| 31>       4      15.2017020000     20.7424480000  2
| 32>     p 6
| 33>       1      14.8778010000     67.4494640000  2
| 34>       2      14.2697310000    134.9043040000  2
| 35>       3       8.7244350000     14.6895470000  2
| 36>       4       8.2915150000     29.4150630000  2
| 37>       5      15.2061680000     15.7454500000  2
| 38>       6      15.2017020000     20.7424480000  2
| 39>     d 6
| 40>       1      15.2050080000     35.4320570000  2
| 41>       2      15.2258480000     53.1356870000  2
| 42>       3       6.0717690000      9.0698020000  2
| 43>       4       5.8047600000     13.1223040000  2
| 44>       5      15.2061680000     15.7454500000  2
| 45>       6      15.2017020000     20.7424480000  2
| 46>     f 2
| 47>       1      15.2061680000    -15.7454500000  2
| 48>       2      15.2017020000    -20.7424480000  2
| 49>   end
| 50>   NewGTO 52
| 51>     s 5
| 52>      1    6213.2001650000      0.0001923679
| 53>      2     920.8964001700      0.0013199349
| 54>      3     199.2804270800      0.0040102177
| 55>      4      24.7742330980     -0.0661328816
| 56>      5      14.8381991690      1.0611959986
| 57>     s 2
| 58>      1      12.2787619540      0.6939918986
| 59>      2       6.3807845532      0.3228749241
| 60>     s 1
| 61>      1       2.2228405205      1.0000000000
| 62>     s 1
| 63>      1       1.0776043442      1.0000000000
| 64>     s 1
| 65>      1       0.2813664902      1.0000000000
| 66>     s 1
| 67>      1       0.1078157334      1.0000000000
| 68>     p 3
| 69>      1     204.2940085200      0.0018228733
| 70>      2      18.2087593580      0.2705010304
| 71>      3       9.9211024302     -1.2341664049
| 72>     p 3
| 73>      1       3.1441528685      0.3724115709
| 74>      2       1.7220884031      0.4781095923
| 75>      3       0.8909894571      0.2078652439
| 76>     p 1
| 77>      1       0.3980471957      1.0000000000
| 78>     p 1
| 79>      1       0.1653878524      1.0000000000
| 80>     p 1
| 81>      1       0.0650826956      1.0000000000
| 82>   end
| 83>   NewAuxGTO 52
| 84>     S 1
| 85>      1 1310.72 1.0
| 86>     S 1
| 87>      1  655.36 1.0
| 88>     S 1
| 89>      1  327.68 1.0
| 90>     S 1
| 91>      1  163.84 1.0
| 92>     S 1
| 93>      1   81.82 1.0
| 94>     S 1
| 95>      1   40.96 1.0
| 96>     S 1
| 97>      1   20.48 1.0
| 98>     S 1
| 99>      1   10.24 1.0
|100>     S 1
|101>      1    5.12 1.0
|102>     S 1
|103>      1    2.56 1.0
|104>     S 1
|105>      1    1.28 1.0
|106>     S 1
|107>      1    0.64 1.0
|108>     S 1
|109>      1    0.32 1.0
|110>     S 1
|111>      1    0.16 1.0
|112>     S 1
|113>      1    0.08 1.0
|114>     S 1
|115>      1    0.04 1.0
|116>     S 1
|117>      1    0.02 1.0
|118>     S 1
|119>      1    0.01 1.0
|120>   end
|121> end
|122>
|123> * xyz 0 3
|124> 52  0.0 0.0 0.0
|125> *
|126>
|127>
|128>                          ****END OF INPUT****

CARTESIAN COORDINATES (ANGSTROEM)
---------------------------------
  Te     0.000000    0.000000    0.000000

 Total Charge           Charge          ....    0
 Multiplicity           Mult            ....    3
 Number of Electrons    NEL             ....   24
 Basis Dimension        Dim             ....   21

ORBITAL ENERGIES
----------------

  NO   OCC          E(Eh)            E(eV)
   0   2.0000     -11.682953      -317.9093
   1   2.0000      -9.272578      -252.3197
   2   2.0000      -9.272578      -252.3197
   3   2.0000      -9.269015      -252.2227
   4   2.0000      -2.967284       -80.7439
   5   2.0000      -1.932153       -52.5766
   6   2.0000      -1.932153       -52.5766
   7   2.0000      -1.922239       -52.3068
   8   2.0000      -0.520778       -14.1711
   9   2.0000      -0.235211        -6.4004
  10   1.3333      -0.263914        -7.1815
  11   1.3333      -0.263914        -7.1815
  12   1.3333       0.936359        25.4796
  13   0.0000       0.300151         8.1675
  14   0.0000       0.300151         8.1675
  15   0.0000       0.313888         8.5413
  16   0.0000      33.641486       915.4314
  17   0.0000      33.641486       915.4314

CleanUpVectors: The p-vectors have cracked symmetry
CleanUpVectors: The p-vectors have cracked symmetry
CleanUpVectors: The p-vectors have cracked symmetry
CleanUpVectors: The p-vectors have cracked symmetry
CleanUpVectors: The p-vectors have cracked symmetry
CleanUpVectors: The p-vectors have cracked symmetry
CleanUpVectors: The p-vectors have cracked symmetry
CleanUpVectors: The p-vectors have cracked symmetry
CleanUpVectors: The p-vectors have cracked symmetry
CleanUpVectors: The p-vectors have cracked symmetry
CleanUpVectors: The p-vectors have cracked symmetry
CleanUpVectors: The p-vectors have cracked symmetry
CleanUpVectors: The p-vectors have cracked symmetry
CleanUpVectors: The p-vectors have cracked symmetry
CleanUpVectors: The p-vectors have cracked symmetry
--------------------------
ATOM BASIS FOR ELEMENT Te
--------------------------
 NewGTO Te
 S 11
    1       6213.200165000000         0.000196243641
    2        920.896400170000         0.001346528346
    3        199.280427080000         0.004091013735
    4         24.774233098000        -0.067465296702
    5         14.838199169000         1.082576491033
    6         12.278761954000        -1.169445406677
    7          6.380784553200        -0.544076375649
    8          2.222840520500         1.231585447013
    9          1.077604344200         0.249154524032
   10          0.281366490200         0.003705463147
   11          0.107815733400        -0.001160090523
 P 20
    1        204.294008520000        -0.000006723754
    2         18.208759358000        -0.000997755824
    3          9.921102430200         0.004552281061
    4        204.294008520000        -0.000023941145
    5         18.208759358000        -0.003552690286
    6          9.921102430200         0.016209221056
    7        204.294008520000        -0.000392163779
    8         18.208759358000        -0.058194228990
    9          9.921102430200         0.265512343047
   10          3.144152868500        -0.007507931889
   11          1.722088403100        -0.009638836532
   12          0.890989457100        -0.004190627293
   13          3.144152868500        -0.026733351047
   14          1.722088403100        -0.034320822897
   15          0.890989457100        -0.014921487327
   16          3.144152868500        -0.437901034808
   17          1.722088403100        -0.562186305634
   18          0.890989457100        -0.244418843336
   19          0.398047195700         0.003189270508
   20          0.398047195700         0.011355975164
 S 11
    1       6213.200165000000         0.000158943182
    2        920.896400170000         0.001090590755
    3        199.280427080000         0.003313425797
    4         24.774233098000        -0.054642020033
    5         14.838199169000         0.876808806934
    6         12.278761954000        -0.975503549908
    7          6.380784553200        -0.453846270066
    8          2.222840520500         1.984634383145
    9          1.077604344200        -0.914710847735
   10          0.281366490200        -1.079207860372
   11          0.107815733400         0.207213461963
 P 20
    1        204.294008520000         0.000002102463
    2         18.208759358000         0.000311990095
    3          9.921102430200        -0.001423461099
    4        204.294008520000        -0.000007516319
    5         18.208759358000        -0.001115366598
    6          9.921102430200         0.005088882591
    7        204.294008520000        -0.000172917300
    8         18.208759358000        -0.025659659268
    9          9.921102430200         0.117072712748
   10          3.144152868500         0.003276128379
   11          1.722088403100         0.004205960625
   12          0.890989457100         0.001828603829
   13          3.144152868500        -0.011712180042
   14          1.722088403100        -0.015036336307
   15          0.890989457100        -0.006537270459
   16          3.144152868500        -0.269445534513
   17          1.722088403100        -0.345919688644
   18          0.890989457100        -0.150393720619
   19          0.398047195700        -0.017806862948
   20          0.398047195700         0.063659649653
 S 11
    1       6213.200165000000         0.001274887107
    2        920.896400170000         0.008747654813
    3        199.280427080000         0.026577068434
    4         24.774233098000        -0.438284963943
    5         14.838199169000         7.032904641847
    6         12.278761954000        -6.041091630486
    7          6.380784553200        -2.810576039301
    8          2.222840520500         3.897272528387
    9          1.077604344200        -2.518535907584
   10          0.281366490200         0.784580680036
   11          0.107815733400        -0.291434455052
 S 11
    1       6213.200165000000         0.000920116624
    2        920.896400170000         0.006313392436
    3        199.280427080000         0.019181308178
    4         24.774233098000        -0.316320777971
    5         14.838199169000         5.075816080225
    6         12.278761954000        -3.142639944024
    7          6.380784553200        -1.462091467418
    8          2.222840520500         1.269426404605
    9          1.077604344200        -0.732097203270
   10          0.281366490200         0.212556300789
   11          0.107815733400        -0.078119915112
 P 20
    1         24.774233098000         0.000000001788
    2         14.838199169000        -0.000000037076
    3         12.278761954000         0.000000045957
    4          6.380784553200         0.000000029660
    5          2.222840520500        -0.000000234400
    6          1.077604344200         0.000000181289
    7        204.294008520000        -0.000148464846
    8         18.208759358000        -0.022031094404
    9          9.921102430200         0.100517312398
   10        204.294008520000        -0.000088967665
   11         18.208759358000        -0.013202149069
   12          9.921102430200         0.060235071302
   13        204.294008520000         0.000002062069
   14         18.208759358000         0.000305995991
   15          9.921102430200        -0.001396112876
   16          3.144152868500        -0.231342900760
   17          1.722088403100        -0.297002748052
   18          0.890989457100        -0.129126354411
   19          3.144152868500        -0.138632398639
   20          1.722088403100        -0.177979109062
 P 20
    1        204.294008520000         0.000000878566
    2         18.208759358000         0.000130372782
    3          9.921102430200        -0.000594828448
    4        204.294008520000        -0.000002741720
    5         18.208759358000        -0.000406851213
    6          9.921102430200         0.001856266861
    7        204.294008520000        -0.000064394491
    8         18.208759358000        -0.009555670247
    9          9.921102430200         0.043597938158
   10          3.144152868500         0.001480711210
   11          1.722088403100         0.001900967339
   12          0.890989457100         0.000826473775
   13          3.144152868500        -0.004620819933
   14          1.722088403100        -0.005932303148
   15          0.890989457100        -0.002579156872
   16          3.144152868500        -0.108528695908
   17          1.722088403100        -0.139331359732
   18          0.890989457100        -0.060576377341
   19          0.398047195700        -0.013401514599
   20          0.398047195700         0.041821784939
 P 20
    1       6213.200165000000         0.000000000036
    2        920.896400170000         0.000000000642
    3        199.280427080000         0.000000004190
    4         24.774233098000        -0.000000195984
    5         14.838199169000         0.000004063568
    6         12.278761954000        -0.000004987634
    7          6.380784553200        -0.000003218954
    8          2.222840520500         0.000034844689
    9          1.077604344200        -0.000059183853
   10          0.281366490200         0.000074232269
   11          0.107815733400        -0.000057684861
   12        204.294008520000        -0.000069202801
   13         18.208759358000        -0.010269188130
   14          9.921102430200         0.046853377884
   15        204.294008520000        -0.000041473711
   16         18.208759358000        -0.006154394510
   17          9.921102430200         0.028079549035
   18        204.294008520000         0.000000884687
   19         18.208759358000         0.000131281111
   20          9.921102430200        -0.000598972716
 P 20
    1        920.896400170000         0.000000000022
    2        199.280427080000         0.000000000145
    3         24.774233098000        -0.000000006777
    4         14.838199169000         0.000000140524
    5         12.278761954000        -0.000000132672
    6          6.380784553200        -0.000000085625
    7          2.222840520500         0.000000198694
    8          1.077604344200        -0.000000183489
    9        204.294008520000        -0.001926367559
   10         18.208759358000        -0.285858819507
   11          9.921102430200         1.304236627337
   12        204.294008520000        -0.001160502398
   13         18.208759358000        -0.172210045721
   14          9.921102430200         0.785711805612
   15        204.294008520000        -0.000093909369
   16         18.208759358000        -0.013935461643
   17          9.921102430200         0.063580824705
   18          3.144152868500        -0.224736102707
   19          1.722088403100        -0.288520805572
   20          0.890989457100        -0.125438703984
 end
  // -----------------------------------------------
  // The basis set
  // -----------------------------------------------
  BAS[ATNO] = new BFNGauss[NSH];
  // Basis function   1 L = s
  InitBFNGauss(BAS[ATNO][  0]);
  BAS[ATNO][  0].l  = 0;
  BAS[ATNO][  0].ng = 11;
  BAS[ATNO][  0].a[  0] =      6213.200165000000;     BAS[ATNO][  0].d[  0] =         0.000196243641;
  BAS[ATNO][  0].a[  1] =       920.896400170000;     BAS[ATNO][  0].d[  1] =         0.001346528346;
  BAS[ATNO][  0].a[  2] =       199.280427080000;     BAS[ATNO][  0].d[  2] =         0.004091013735;
  BAS[ATNO][  0].a[  3] =        24.774233098000;     BAS[ATNO][  0].d[  3] =        -0.067465296702;
  BAS[ATNO][  0].a[  4] =        14.838199169000;     BAS[ATNO][  0].d[  4] =         1.082576491033;
  BAS[ATNO][  0].a[  5] =        12.278761954000;     BAS[ATNO][  0].d[  5] =        -1.169445406677;
  BAS[ATNO][  0].a[  6] =         6.380784553200;     BAS[ATNO][  0].d[  6] =        -0.544076375649;
  BAS[ATNO][  0].a[  7] =         2.222840520500;     BAS[ATNO][  0].d[  7] =         1.231585447013;
  BAS[ATNO][  0].a[  8] =         1.077604344200;     BAS[ATNO][  0].d[  8] =         0.249154524032;
  BAS[ATNO][  0].a[  9] =         0.281366490200;     BAS[ATNO][  0].d[  9] =         0.003705463147;
  BAS[ATNO][  0].a[ 10] =         0.107815733400;     BAS[ATNO][  0].d[ 10] =        -0.001160090523;

FINAL SINGLE POINT ENERGY      -231.605808072966

DIPOLE MOMENT
-------------
                                X             Y             Z
Electronic contribution:     -0.00002       0.00000      -0.00003
Nuclear contribution   :      0.00000       0.00000       0.00000
                        -----------------------------------------
Total Dipole Moment    :     -0.00002       0.00000      -0.00003
                        -----------------------------------------
Magnitude (a.u.)       :      0.00004
Magnitude (Debye)      :      0.00009

Rotational constants in cm-1:     0.000000     0.000000     0.000000
Rotational constants in MHz :     0.000000     0.000000     0.000000

                             ****ORCA TERMINATED NORMALLY****
TOTAL RUN TIME: 0 days 0 hours 0 minutes 0 seconds 961 msec
