                         Program Version 4.2.0 -  RELEASE  -
|  1> #
|  2> # 52_Te CCSD(T)/Def2-TZVP
|  3> #
|  4> ! CCSD(T) Def2-TZVP tightscf
|  5>
|  6> *xyz 0 3
|  7>  Te 0.0 0.0 0.0
|  8> *
|  9>
| 10> %maxcore 5000
| 11>
| 12> %pal
| 13> nprocs 24
| 14> end
| 15>
| 16>
| 17>                          ****END OF INPUT****

CARTESIAN COORDINATES (ANGSTROEM)
---------------------------------
  Te     0.000000    0.000000    0.000000

 Total Charge           Charge          ....    0
 Multiplicity           Mult            ....    3
 Number of Electrons    NEL             ....   24
 Basis Dimension        Dim             ....   50

ORBITAL ENERGIES
----------------
                 SPIN UP ORBITALS
  NO   OCC          E(Eh)            E(eV)
   0   1.0000      -7.136420      -194.1919
   1   1.0000      -5.108331      -139.0048
   2   1.0000      -5.108331      -139.0048
   3   1.0000      -5.088993      -138.4785
   4   1.0000      -1.966717       -53.5171
   5   1.0000      -1.966717       -53.5171
   6   1.0000      -1.950867       -53.0858
   7   1.0000      -1.950867       -53.0858
   8   1.0000      -1.945726       -52.9459
   9   1.0000      -0.830760       -22.6061
  10   1.0000      -0.397809       -10.8249
  11   1.0000      -0.397809       -10.8249
  12   1.0000      -0.342453        -9.3186
  13   0.0000       0.217680         5.9234
  14   0.0000       0.217680         5.9234
  15   0.0000       0.238646         6.4939
  16   0.0000       0.293569         7.9884
  17   0.0000       0.293569         7.9884

                 SPIN DOWN ORBITALS
  NO   OCC          E(Eh)            E(eV)
   0   1.0000      -7.124761      -193.8746
   1   1.0000      -5.091108      -138.5361
   2   1.0000      -5.091108      -138.5361
   3   1.0000      -5.088331      -138.4605
   4   1.0000      -1.951708       -53.1087
   5   1.0000      -1.951708       -53.1087
   6   1.0000      -1.943296       -52.8798
   7   1.0000      -1.943296       -52.8798
   8   1.0000      -1.940663       -52.8081
   9   1.0000      -0.665512       -18.1095
  10   1.0000      -0.310966        -8.4618
  11   0.0000      -0.009014        -0.2453
  12   0.0000      -0.009014        -0.2453
  13   0.0000       0.245222         6.6728
  14   0.0000       0.263818         7.1789
  15   0.0000       0.263818         7.1789

E(0)                                       ...   -267.005554170
E(0)                                       ...   -267.005554170
E(CORR)                                    ...     -0.394129561
E(TOT)                                     ...   -267.399683731
E(CCSD(T))                                 ...   -267.406105413

MULLIKEN ATOMIC CHARGES AND SPIN DENSITIES
------------------------------------------
   0 Te:   -0.000000    2.000000
Sum of atomic charges       :   -0.0000000

LOEWDIN ATOMIC CHARGES AND SPIN DENSITIES
-----------------------------------------
   0 Te:   -0.000000    2.000000

FINAL SINGLE POINT ENERGY      -267.406105413487

DIPOLE MOMENT
-------------
                                X             Y             Z
Electronic contribution:     -0.00000       0.00000       0.00000
Nuclear contribution   :      0.00000       0.00000       0.00000
                        -----------------------------------------
Total Dipole Moment    :     -0.00000       0.00000       0.00000
                        -----------------------------------------
Magnitude (a.u.)       :      0.00000
Magnitude (Debye)      :      0.00000

Rotational constants in cm-1:     0.000000     0.000000     0.000000
Rotational constants in MHz :     0.000000     0.000000     0.000000

                             ****ORCA TERMINATED NORMALLY****
TOTAL RUN TIME: 0 days 0 hours 0 minutes 22 seconds 950 msec
