                         Program Version 4.2.0 -  RELEASE  -
|  1> # input to generate an atomic fitting density for I
|  2> # this file is use internally by ORCA
|  3> #
|  4> # atomic ground state (S=2): 1s2 2s2 2p6 3s2 3p6 4s2 3d10 4p6 5s2 4d10 5p5
|  5> #
|  6> ! RHF AllowRHF def2-SVP def2/J  NoMulliken NoLoewdin NoMayer NoPrintMOs
|  7>
|  8> %output print[p_atomdensfit] 2 end
|  9>
| 10> %scf
| 11>   guess hcore
| 12>   maxiter 1000
| 13>   maxdisk 500000
| 14>   SCFMode Conventional
| 15>   lshift 1.000000
| 16>   hftyp rohf
| 17>   rohf_case sahf
| 18>   rohf_numop   2
| 19>   rohf_norb[1] 3
| 20>   rohf_nel[1]  5
| 21> end
| 22>
| 23> %basis
| 24>   NewECP 53
| 25>     N_core 28
| 26>     lmax f
| 27>     s 7
| 28>       1      40.0158350000     49.9942930000  2
| 29>       2      17.4297470000    281.0253170000  2
| 30>       3       9.0054840000     61.5733260000  2
| 31>       4      19.4586090000     21.8420400000  2
| 32>       5      19.3492600000     28.4681910000  2
| 33>       6       4.8237670000      0.2437130000  2
| 34>       7       4.8843150000      0.3208040000  2
| 35>     p 8
| 36>       1      15.3554660000     67.4428410000  2
| 37>       2      14.9718330000    134.8811370000  2
| 38>       3       8.9601640000     14.6750510000  2
| 39>       4       8.2590960000     29.3756660000  2
| 40>       5      19.4586090000     21.8420400000  2
| 41>       6      19.3492600000     28.4681910000  2
| 42>       7       4.8237670000      0.2437130000  2
| 43>       8       4.8843150000      0.3208040000  2
| 44>     d 10
| 45>       1      15.0689080000     35.4395290000  2
| 46>       2      14.5553220000     53.1760570000  2
| 47>       3       6.7186470000      9.0671950000  2
| 48>       4       6.4563930000     13.2069370000  2
| 49>       5       1.1917790000      0.0893350000  2
| 50>       6       1.2911570000      0.0523800000  2
| 51>       7      19.4586090000     21.8420400000  2
| 52>       8      19.3492600000     28.4681910000  2
| 53>       9       4.8237670000      0.2437130000  2
| 54>      10       4.8843150000      0.3208040000  2
| 55>     f 4
| 56>       1      19.4586090000    -21.8420400000  2
| 57>       2      19.3492600000    -28.4681910000  2
| 58>       3       4.8237670000     -0.2437130000  2
| 59>       4       4.8843150000     -0.3208040000  2
| 60>   end
| 61>   NewGTO 53
| 62>     s 5
| 63>      1    5899.5791533000      0.0002610056
| 64>      2     898.5423876500      0.0016697400
| 65>      3     200.3723791200      0.0046223298
| 66>      4      31.4180538400     -0.0425342684
| 67>      5      15.6459878380      1.0368318419
| 68>     s 2
| 69>      1      11.8157418570      0.6510798928
| 70>      2       6.4614458287      0.3642365936
| 71>     s 1
| 72>      1       2.3838067579      1.0000000000
| 73>     s 1
| 74>      1       1.1712089662      1.0000000000
| 75>     s 1
| 76>      1       0.3211587576      1.0000000000
| 77>     s 1
| 78>      1       0.1238791936      1.0000000000
| 79>     p 3
| 80>      1     197.3003054700      0.0031927743
| 81>      2      20.0614113490      0.2856760152
| 82>      3       9.7631460485     -1.2328204991
| 83>     p 4
| 84>      1      12.9843169040     -0.0386816591
| 85>      2       3.6199503008      0.3065970959
| 86>      3       2.0232273090      0.5169312450
| 87>      4       1.0367490559      0.2505722415
| 88>     p 1
| 89>      1       0.4593781600      1.0000000000
| 90>     p 1
| 91>      1       0.1911653293      1.0000000000
| 92>     p 1
| 93>      1       0.0748788130      1.0000000000
| 94>   end
| 95>   NewAuxGTO 53
| 96>     S 1
| 97>      1 1310.72 1.0
| 98>     S 1
| 99>      1  655.36 1.0
|100>     S 1
|101>      1  327.68 1.0
|102>     S 1
|103>      1  163.84 1.0
|104>     S 1
|105>      1   81.82 1.0
|106>     S 1
|107>      1   40.96 1.0
|108>     S 1
|109>      1   20.48 1.0
|110>     S 1
|111>      1   10.24 1.0
|112>     S 1
|113>      1    5.12 1.0
|114>     S 1
|115>      1    2.56 1.0
|116>     S 1
|117>      1    1.28 1.0
|118>     S 1
|119>      1    0.64 1.0
|120>     S 1
|121>      1    0.32 1.0
|122>     S 1
|123>      1    0.16 1.0
|124>     S 1
|125>      1    0.08 1.0
|126>     S 1
|127>      1    0.04 1.0
|128>     S 1
|129>      1    0.02 1.0
|130>     S 1
|131>      1    0.01 1.0
|132>   end
|133> end
|134>
|135> * xyz 0 2
|136> 53  0.0 0.0 0.0
|137> *
|138>
|139>
|140>                          ****END OF INPUT****

CARTESIAN COORDINATES (ANGSTROEM)
---------------------------------
  I      0.000000    0.000000    0.000000

 Total Charge           Charge          ....    0
 Multiplicity           Mult            ....    2
 Number of Electrons    NEL             ....   25
 Basis Dimension        Dim             ....   21

ORBITAL ENERGIES
----------------

  NO   OCC          E(Eh)            E(eV)
   0   2.0000     -12.520819      -340.7088
   1   2.0000      -9.991555      -271.8840
   2   2.0000      -9.991555      -271.8840
   3   2.0000      -9.989584      -271.8304
   4   2.0000      -3.231809       -87.9420
   5   2.0000      -2.151415       -58.5430
   6   2.0000      -2.151415       -58.5430
   7   2.0000      -2.146327       -58.4045
   8   2.0000      -0.580473       -15.7955
   9   2.0000      -0.267186        -7.2705
  10   1.6667      -0.279886        -7.6161
  11   1.6667      -0.279886        -7.6161
  12   1.6667       1.114210        30.3192
  13   0.0000       0.368412        10.0250
  14   0.0000       0.368412        10.0250
  15   0.0000       0.374736        10.1971
  16   0.0000      29.265494       796.3546
  17   0.0000      29.265494       796.3546

CleanUpVectors: The p-vectors have cracked symmetry
CleanUpVectors: The p-vectors have cracked symmetry
CleanUpVectors: The p-vectors have cracked symmetry
CleanUpVectors: The p-vectors have cracked symmetry
CleanUpVectors: The p-vectors have cracked symmetry
CleanUpVectors: The p-vectors have cracked symmetry
CleanUpVectors: The p-vectors have cracked symmetry
CleanUpVectors: The p-vectors have cracked symmetry
CleanUpVectors: The p-vectors have cracked symmetry
CleanUpVectors: The p-vectors have cracked symmetry
CleanUpVectors: The p-vectors have cracked symmetry
CleanUpVectors: The p-vectors have cracked symmetry
CleanUpVectors: The p-vectors have cracked symmetry
CleanUpVectors: The p-vectors have cracked symmetry
CleanUpVectors: The p-vectors have cracked symmetry
--------------------------
ATOM BASIS FOR ELEMENT I
--------------------------
 NewGTO I
 S 11
    1       5899.579153300000        -0.000169504824
    2        898.542387650000        -0.001084378976
    3        200.372379120000        -0.003001878889
    4         31.418053840000         0.027623023002
    5         15.645987838000        -0.673349534277
    6         11.815741857000         0.870976044033
    7          6.461445828700         0.487254100294
    8          2.383806757900        -1.238368294757
    9          1.171208966200        -0.253463438945
   10          0.321158757600        -0.007076480348
   11          0.123879193600         0.002382334415
 P 21
    1        197.300305470000         0.000007518851
    2         20.061411349000         0.000672755132
    3          9.763146048500        -0.002903240992
    4        197.300305470000        -0.000068306635
    5         20.061411349000        -0.006111790425
    6          9.763146048500         0.026375124693
    7        197.300305470000        -0.000558473358
    8         20.061411349000        -0.049969847105
    9          9.763146048500         0.215642366073
   10         12.984316904000        -0.000603047179
   11          3.619950300800         0.004779849622
   12          2.023227309000         0.008058959622
   13          1.036749055900         0.003906421978
   14         12.984316904000         0.005478513349
   15          3.619950300800        -0.043423584248
   16          2.023227309000        -0.073213372755
   17          1.036749055900        -0.035488740711
   18         12.984316904000         0.044792189420
   19          3.619950300800        -0.355030149036
   20          2.023227309000        -0.598590721857
   21          1.036749055900        -0.290155064851
 S 11
    1       5899.579153300000        -0.000137609649
    2        898.542387650000        -0.000880334887
    3        200.372379120000        -0.002437025035
    4         31.418053840000         0.022425287992
    5         15.645987838000        -0.546647527464
    6         11.815741857000         0.741786115622
    7          6.461445828700         0.414980789488
    8          2.383806757900        -2.039202123234
    9          1.171208966200         0.912570498266
   10          0.321158757600         1.086011158968
   11          0.123879193600        -0.188382047000
 P 21
    1        197.300305470000         0.000002923848
    2         20.061411349000         0.000261613642
    3          9.763146048500        -0.001128980536
    4        197.300305470000        -0.000026560462
    5         20.061411349000        -0.002376518410
    6          9.763146048500         0.010255745865
    7        197.300305470000        -0.000217157706
    8         20.061411349000        -0.019430358142
    9          9.763146048500         0.083850734915
   10         12.984316904000        -0.000391347244
   11          3.619950300800         0.003101881648
   12          2.023227309000         0.005229858872
   13          1.036749055900         0.002535071101
   14         12.984316904000         0.003555028407
   15          3.619950300800        -0.028177731020
   16          2.023227309000        -0.047508439488
   17          1.036749055900        -0.023028780496
   18         12.984316904000         0.029065827928
   19          3.619950300800        -0.230380460408
   20          2.023227309000        -0.388427874285
   21          1.036749055900        -0.188282763060
 S 11
    1       5899.579153300000         0.001244225521
    2        898.542387650000         0.007959726231
    3        200.372379120000         0.022034855581
    4         31.418053840000        -0.202762784568
    5         15.645987838000         4.942624366196
    6         11.815741857000        -4.567307276864
    7          6.461445828700        -2.555109538547
    8          2.383806757900         4.181681136611
    9          1.171208966200        -2.750937777769
   10          0.321158757600         0.869613386526
   11          0.123879193600        -0.314163286157
 S 11
    1       5899.579153300000         0.001022923432
    2        898.542387650000         0.006543982854
    3        200.372379120000         0.018115662891
    4         31.418053840000        -0.166698721419
    5         15.645987838000         4.063512759776
    6         11.815741857000        -2.460188840365
    7          6.461445828700        -1.376314662358
    8          2.383806757900         1.459109778746
    9          1.171208966200        -0.864336643692
   10          0.321158757600         0.256729929345
   11          0.123879193600        -0.091920378519
 P 21
    1         15.645987838000        -0.000000015333
    2         11.815741857000         0.000000024368
    3          6.461445828700         0.000000018434
    4          2.383806757900        -0.000000156600
    5          1.171208966200         0.000000111938
    6        197.300305470000        -0.000218746246
    7         20.061411349000        -0.019572493992
    8          9.763146048500         0.084464115038
    9        197.300305470000        -0.000003935167
   10         20.061411349000        -0.000352102168
   11          9.763146048500         0.001519479226
   12        197.300305470000        -0.000002463928
   13         20.061411349000        -0.000220461925
   14          9.763146048500         0.000951392366
   15         12.984316904000         0.029278448800
   16          3.619950300800        -0.232065727877
   17          2.023227309000        -0.391269282187
   18          1.036749055900        -0.189660079587
   19         12.984316904000         0.000526708824
   20          3.619950300800        -0.004174779455
   21          2.023227309000        -0.007038794464
 P 21
    1        197.300305470000         0.000001053468
    2         20.061411349000         0.000094259882
    3          9.763146048500        -0.000406773786
    4        197.300305470000        -0.000009569648
    5         20.061411349000        -0.000856251820
    6          9.763146048500         0.003695111736
    7        197.300305470000        -0.000078241214
    8         20.061411349000        -0.007000694754
    9          9.763146048500         0.030211146688
   10         12.984316904000        -0.000162565697
   11          3.619950300800         0.001288522047
   12          2.023227309000         0.002172484068
   13          1.036749055900         0.001053068871
   14         12.984316904000         0.001476738263
   15          3.619950300800        -0.011704866684
   16          2.023227309000        -0.019734731309
   17          1.036749055900        -0.009566022382
   18         12.984316904000         0.012073777323
   19          3.619950300800        -0.095698714839
   20          2.023227309000        -0.161350699235
   21          1.036749055900        -0.078211574104
 P 21
    1        197.300305470000         0.000001335563
    2         20.061411349000         0.000119500541
    3          9.763146048500        -0.000515698586
    4        197.300305470000        -0.000012132178
    5         20.061411349000        -0.001085536257
    6          9.763146048500         0.004684577210
    7        197.300305470000        -0.000099192402
    8         20.061411349000        -0.008875318924
    9          9.763146048500         0.038300993164
   10         12.984316904000        -0.000210340876
   11          3.619950300800         0.001667195853
   12          2.023227309000         0.002810938654
   13          1.036749055900         0.001362547159
   14         12.984316904000         0.001910724792
   15          3.619950300800        -0.015144714214
   16          2.023227309000        -0.025534410073
   17          1.036749055900        -0.012377302454
   18         12.984316904000         0.015622040993
   19          3.619950300800        -0.123822827460
   20          2.023227309000        -0.208768736607
   21          1.036749055900        -0.101196533954
 P 21
    1         15.645987838000         0.000000015547
    2         11.815741857000        -0.000000016498
    3          6.461445828700        -0.000000012481
    4          2.383806757900         0.000000032880
    5        197.300305470000        -0.004057513542
    6         20.061411349000        -0.363049245401
    7          9.763146048500         1.566720788934
    8        197.300305470000        -0.000072993285
    9         20.061411349000        -0.006531132131
   10          9.763146048500         0.028184772766
   11        197.300305470000        -0.000045704168
   12         20.061411349000        -0.004089416678
   13          9.763146048500         0.017647672333
   14         12.984316904000         0.032649180054
   15          3.619950300800        -0.258782689807
   16          2.023227309000        -0.436314824293
   17          1.036749055900        -0.211495019077
   18         12.984316904000         0.000587347616
   19          3.619950300800        -0.004655412347
   20          2.023227309000        -0.007849154910
   21          1.036749055900        -0.003804723276
 end
  // -----------------------------------------------
  // The basis set
  // -----------------------------------------------
  BAS[ATNO] = new BFNGauss[NSH];
  // Basis function   1 L = s
  InitBFNGauss(BAS[ATNO][  0]);
  BAS[ATNO][  0].l  = 0;
  BAS[ATNO][  0].ng = 11;
  BAS[ATNO][  0].a[  0] =      5899.579153300000;     BAS[ATNO][  0].d[  0] =         0.000169504824;
  BAS[ATNO][  0].a[  1] =       898.542387650000;     BAS[ATNO][  0].d[  1] =         0.001084378976;
  BAS[ATNO][  0].a[  2] =       200.372379120000;     BAS[ATNO][  0].d[  2] =         0.003001878889;
  BAS[ATNO][  0].a[  3] =        31.418053840000;     BAS[ATNO][  0].d[  3] =        -0.027623023002;
  BAS[ATNO][  0].a[  4] =        15.645987838000;     BAS[ATNO][  0].d[  4] =         0.673349534277;
  BAS[ATNO][  0].a[  5] =        11.815741857000;     BAS[ATNO][  0].d[  5] =        -0.870976044033;
  BAS[ATNO][  0].a[  6] =         6.461445828700;     BAS[ATNO][  0].d[  6] =        -0.487254100294;
  BAS[ATNO][  0].a[  7] =         2.383806757900;     BAS[ATNO][  0].d[  7] =         1.238368294757;
  BAS[ATNO][  0].a[  8] =         1.171208966200;     BAS[ATNO][  0].d[  8] =         0.253463438945;
  BAS[ATNO][  0].a[  9] =         0.321158757600;     BAS[ATNO][  0].d[  9] =         0.007076480348;
  BAS[ATNO][  0].a[ 10] =         0.123879193600;     BAS[ATNO][  0].d[ 10] =        -0.002382334415;

FINAL SINGLE POINT ENERGY      -254.989917611751

DIPOLE MOMENT
-------------
                                X             Y             Z
Electronic contribution:      0.00082      -0.00010      -0.00004
Nuclear contribution   :      0.00000       0.00000       0.00000
                        -----------------------------------------
Total Dipole Moment    :      0.00082      -0.00010      -0.00004
                        -----------------------------------------
Magnitude (a.u.)       :      0.00083
Magnitude (Debye)      :      0.00211

Rotational constants in cm-1:     0.000000     0.000000     0.000000
Rotational constants in MHz :     0.000000     0.000000     0.000000

                             ****ORCA TERMINATED NORMALLY****
TOTAL RUN TIME: 0 days 0 hours 0 minutes 1 seconds 60 msec
