                         Program Version 4.2.0 -  RELEASE  -
|  1> #
|  2> # 53_I CCSD(T)/Def2-TZVP
|  3> #
|  4> ! CCSD(T) Def2-TZVP tightscf
|  5>
|  6> *xyz 0 2
|  7>  I 0.0 0.0 0.0
|  8> *
|  9>
| 10> %maxcore 5000
| 11>
| 12> %pal
| 13> nprocs 24
| 14> end
| 15>
| 16>
| 17>                          ****END OF INPUT****

CARTESIAN COORDINATES (ANGSTROEM)
---------------------------------
  I      0.000000    0.000000    0.000000

 Total Charge           Charge          ....    0
 Multiplicity           Mult            ....    2
 Number of Electrons    NEL             ....   25
 Basis Dimension        Dim             ....   50

ORBITAL ENERGIES
----------------
                 SPIN UP ORBITALS
  NO   OCC          E(Eh)            E(eV)
   0   1.0000      -7.762611      -211.2314
   1   1.0000      -5.625187      -153.0691
   2   1.0000      -5.602933      -152.4636
   3   1.0000      -5.602933      -152.4636
   4   1.0000      -2.315595       -63.0105
   5   1.0000      -2.309527       -62.8454
   6   1.0000      -2.309527       -62.8454
   7   1.0000      -2.291670       -62.3595
   8   1.0000      -2.291670       -62.3595
   9   1.0000      -0.922610       -25.1055
  10   1.0000      -0.459760       -12.5107
  11   1.0000      -0.399699       -10.8764
  12   1.0000      -0.399699       -10.8764
  13   0.0000       0.243714         6.6318
  14   0.0000       0.265430         7.2227
  15   0.0000       0.265430         7.2227
  16   0.0000       0.311612         8.4794
  17   0.0000       0.321104         8.7377

                 SPIN DOWN ORBITALS
  NO   OCC          E(Eh)            E(eV)
   0   1.0000      -7.755060      -211.0259
   1   1.0000      -5.604468      -152.5053
   2   1.0000      -5.601924      -152.4361
   3   1.0000      -5.601924      -152.4361
   4   1.0000      -2.303841       -62.6907
   5   1.0000      -2.300626       -62.6032
   6   1.0000      -2.300626       -62.6032
   7   1.0000      -2.291399       -62.3521
   8   1.0000      -2.291399       -62.3521
   9   1.0000      -0.832776       -22.6610
  10   1.0000      -0.382183       -10.3997
  11   1.0000      -0.382183       -10.3997
  12   0.0000      -0.050923        -1.3857
  13   0.0000       0.268781         7.3139
  14   0.0000       0.268781         7.3139
  15   0.0000       0.284953         7.7540
  16   0.0000       0.352839         9.6012

E(0)                                       ...   -296.658567115
E(0)                                       ...   -296.658567115
E(CORR)                                    ...     -0.445978328
E(TOT)                                     ...   -297.104545444
E(CCSD(T))                                 ...   -297.111694573

MULLIKEN ATOMIC CHARGES AND SPIN DENSITIES
------------------------------------------
   0 I :    0.000000    1.000000
Sum of atomic charges       :    0.0000000

LOEWDIN ATOMIC CHARGES AND SPIN DENSITIES
-----------------------------------------
   0 I :    0.000000    1.000000

FINAL SINGLE POINT ENERGY      -297.111694572936

DIPOLE MOMENT
-------------
                                X             Y             Z
Electronic contribution:     -0.00000       0.00000      -0.00000
Nuclear contribution   :      0.00000       0.00000       0.00000
                        -----------------------------------------
Total Dipole Moment    :     -0.00000       0.00000      -0.00000
                        -----------------------------------------
Magnitude (a.u.)       :      0.00000
Magnitude (Debye)      :      0.00000

Rotational constants in cm-1:     0.000000     0.000000     0.000000
Rotational constants in MHz :     0.000000     0.000000     0.000000

                             ****ORCA TERMINATED NORMALLY****
TOTAL RUN TIME: 0 days 0 hours 0 minutes 13 seconds 206 msec
