                         Program Version 4.2.0 -  RELEASE  -
|  1> #
|  2> # 54_Xe CCSD(T)/Def2-TZVP
|  3> #
|  4> ! CCSD(T) Def2-TZVP tightscf
|  5>
|  6> *xyz 0 1
|  7>  Xe 0.0 0.0 0.0
|  8> *
|  9>
| 10> %maxcore 5000
| 11>
| 12> %pal
| 13> nprocs 24
| 14> end
| 15>
| 16>
| 17>                          ****END OF INPUT****

CARTESIAN COORDINATES (ANGSTROEM)
---------------------------------
  Xe     0.000000    0.000000    0.000000

 Total Charge           Charge          ....    0
 Multiplicity           Mult            ....    1
 Number of Electrons    NEL             ....   26
 Basis Dimension        Dim             ....   50

ORBITAL ENERGIES
----------------

  NO   OCC          E(Eh)            E(eV)
   0   2.0000      -8.399786      -228.5698
   1   2.0000      -6.133494      -166.9009
   2   2.0000      -6.133494      -166.9009
   3   2.0000      -6.133494      -166.9009
   4   2.0000      -2.663822       -72.4863
   5   2.0000      -2.663822       -72.4863
   6   2.0000      -2.663822       -72.4863
   7   2.0000      -2.663822       -72.4863
   8   2.0000      -2.663822       -72.4863
   9   2.0000      -1.009338       -27.4655
  10   2.0000      -0.456060       -12.4100
  11   2.0000      -0.456060       -12.4100
  12   2.0000      -0.456060       -12.4100
  13   0.0000       0.298586         8.1249
  14   0.0000       0.298586         8.1249
  15   0.0000       0.298586         8.1249
  16   0.0000       0.353070         9.6075
  17   0.0000       0.353070         9.6075

E(0)                                       ...   -328.298393676
E(0)                                       ...   -328.298393676
E(CORR)                                    ...     -0.494291930
E(TOT)                                     ...   -328.792685606
E(CCSD(T))                                 ...   -328.800663562

MULLIKEN ATOMIC CHARGES
-----------------------
   0 Xe:   -0.000000
Sum of atomic charges:   -0.0000000

LOEWDIN ATOMIC CHARGES
----------------------
   0 Xe:   -0.000000

FINAL SINGLE POINT ENERGY      -328.800663562388

DIPOLE MOMENT
-------------
                                X             Y             Z
Electronic contribution:      0.00000       0.00000       0.00000
Nuclear contribution   :      0.00000       0.00000       0.00000
                        -----------------------------------------
Total Dipole Moment    :      0.00000       0.00000       0.00000
                        -----------------------------------------
Magnitude (a.u.)       :      0.00000
Magnitude (Debye)      :      0.00000

Rotational constants in cm-1:     0.000000     0.000000     0.000000
Rotational constants in MHz :     0.000000     0.000000     0.000000

                             ****ORCA TERMINATED NORMALLY****
TOTAL RUN TIME: 0 days 0 hours 0 minutes 7 seconds 734 msec
