                         Program Version 4.2.0 -  RELEASE  -
|  1> #
|  2> # 55_Cs CCSD(T)/Def2-TZVP
|  3> #
|  4> ! CCSD(T) Def2-TZVP tightscf
|  5>
|  6> *xyz 0 2
|  7>  Cs 0.0 0.0 0.0
|  8> *
|  9>
| 10> %maxcore 5000
| 11>
| 12> %pal
| 13> nprocs 24
| 14> end
| 15>
| 16> %method
| 17> NewNCore Cs 46 end
| 18> end
| 19>
| 20>
| 21>                          ****END OF INPUT****

CARTESIAN COORDINATES (ANGSTROEM)
---------------------------------
  Cs     0.000000    0.000000    0.000000

 Total Charge           Charge          ....    0
 Multiplicity           Mult            ....    2
 Number of Electrons    NEL             ....    9
 Basis Dimension        Dim             ....   29

ORBITAL ENERGIES
----------------
                 SPIN UP ORBITALS
  NO   OCC          E(Eh)            E(eV)
   0   1.0000      -1.317847       -35.8604
   1   1.0000      -0.679634       -18.4938
   2   1.0000      -0.679634       -18.4938
   3   1.0000      -0.679634       -18.4938
   4   1.0000      -0.128891        -3.5073
   5   0.0000       0.015795         0.4298
   6   0.0000       0.015795         0.4298
   7   0.0000       0.015795         0.4298
   8   0.0000       0.043241         1.1766
   9   0.0000       0.043241         1.1766

                 SPIN DOWN ORBITALS
  NO   OCC          E(Eh)            E(eV)
   0   1.0000      -1.314928       -35.7810
   1   1.0000      -0.678069       -18.4512
   2   1.0000      -0.678069       -18.4512
   3   1.0000      -0.678069       -18.4512
   4   0.0000       0.008765         0.2385
   5   0.0000       0.038719         1.0536
   6   0.0000       0.038719         1.0536
   7   0.0000       0.038719         1.0536
   8   0.0000       0.050235         1.3670

E(0)                                       ...    -19.855195711
E(0)                                       ...    -19.855195711
E(CORR)                                    ...     -0.110537630
E(TOT)                                     ...    -19.965733341
E(CCSD(T))                                 ...    -19.966999187

MULLIKEN ATOMIC CHARGES AND SPIN DENSITIES
------------------------------------------
   0 Cs:   -0.000000    1.000000
Sum of atomic charges       :   -0.0000000

LOEWDIN ATOMIC CHARGES AND SPIN DENSITIES
-----------------------------------------
   0 Cs:    0.000000    1.000000

FINAL SINGLE POINT ENERGY       -19.966999187447

DIPOLE MOMENT
-------------
                                X             Y             Z
Electronic contribution:      0.00000      -0.00000       0.00000
Nuclear contribution   :      0.00000       0.00000       0.00000
                        -----------------------------------------
Total Dipole Moment    :      0.00000      -0.00000       0.00000
                        -----------------------------------------
Magnitude (a.u.)       :      0.00000
Magnitude (Debye)      :      0.00000

Rotational constants in cm-1:     0.000000     0.000000     0.000000
Rotational constants in MHz :     0.000000     0.000000     0.000000

                             ****ORCA TERMINATED NORMALLY****
TOTAL RUN TIME: 0 days 0 hours 0 minutes 14 seconds 698 msec
