                         Program Version 4.2.0 -  RELEASE  -
|  1> # input to generate an atomic fitting density for Cs
|  2> # this file is use internally by ORCA
|  3> #
|  4> # atomic ground state (S=2): 1s2 2s2 2p6 3s2 3p6 4s2 3d10 4p6 5s2 4d10 5p6 6s1
|  5> #
|  6> ! RHF AllowRHF def2-SVP def2/J  NoMulliken NoLoewdin NoMayer NoPrintMOs
|  7>
|  8> %output print[p_atomdensfit] 2 end
|  9>
| 10> %scf
| 11>   guess hcore
| 12>   maxiter 1000
| 13>   maxdisk 500000
| 14>   SCFMode Conventional
| 15>   lshift 1.000000
| 16>   hftyp rohf
| 17>   rohf_case sahf
| 18>   rohf_numop   2
| 19>   rohf_norb[1] 1
| 20>   rohf_nel[1]  1
| 21> end
| 22>
| 23> %basis
| 24>   NewECP 55
| 25>     N_core 46
| 26>     lmax f
| 27>     s 3
| 28>       1       4.0797500000     84.5477300000  2
| 29>       2       2.4174060000     16.6541730000  2
| 30>       3       3.1232690000     28.8843090000  2
| 31>     p 3
| 32>       1       5.5140800000    157.0490590000  2
| 33>       2       2.1603160000     26.4233070000  2
| 34>       3       3.1232690000     28.8843090000  2
| 35>     d 3
| 36>       1       1.8074100000     13.1727530000  2
| 37>       2       0.8581820000      3.3428330000  2
| 38>       3       3.1232690000     28.8843090000  2
| 39>     f 1
| 40>       1       3.1232690000    -28.8843090000  2
| 41>   end
| 42>   NewGTO 55
| 43>     s 3
| 44>      1       5.8778113443      0.2532294620
| 45>      2       4.3631538286     -0.6819588200
| 46>      3       1.8048475155      1.3770221239
| 47>     s 1
| 48>      1       0.3748523714      1.0000000000
| 49>     s 1
| 50>      1       0.1638485878      1.0000000000
| 51>     s 1
| 52>      1       0.0272304620      1.0000000000
| 53>     s 1
| 54>      1       0.0119915332      1.0000000000
| 55>     p 4
| 56>      1       4.2751856154      0.0454150690
| 57>      2       1.9656663360     -0.2485141953
| 58>      3       0.4768919521      0.5528590081
| 59>      4       0.2152974959      0.5782637464
| 60>     p 1
| 61>      1       0.0914508503      1.0000000000
| 62>     p 1
| 63>      1       0.0175920785      1.0000000000
| 64>   end
| 65>   NewAuxGTO 55
| 66>     S 1
| 67>      1 1310.72 1.0
| 68>     S 1
| 69>      1  655.36 1.0
| 70>     S 1
| 71>      1  327.68 1.0
| 72>     S 1
| 73>      1  163.84 1.0
| 74>     S 1
| 75>      1   81.82 1.0
| 76>     S 1
| 77>      1   40.96 1.0
| 78>     S 1
| 79>      1   20.48 1.0
| 80>     S 1
| 81>      1   10.24 1.0
| 82>     S 1
| 83>      1    5.12 1.0
| 84>     S 1
| 85>      1    2.56 1.0
| 86>     S 1
| 87>      1    1.28 1.0
| 88>     S 1
| 89>      1    0.64 1.0
| 90>     S 1
| 91>      1    0.32 1.0
| 92>     S 1
| 93>      1    0.16 1.0
| 94>     S 1
| 95>      1    0.08 1.0
| 96>     S 1
| 97>      1    0.04 1.0
| 98>     S 1
| 99>      1    0.02 1.0
|100>     S 1
|101>      1    0.01 1.0
|102>   end
|103> end
|104>
|105> * xyz 0 2
|106> 55  0.0 0.0 0.0
|107> *
|108>
|109>
|110>                          ****END OF INPUT****

CARTESIAN COORDINATES (ANGSTROEM)
---------------------------------
  Cs     0.000000    0.000000    0.000000

 Total Charge           Charge          ....    0
 Multiplicity           Mult            ....    2
 Number of Electrons    NEL             ....    9
 Basis Dimension        Dim             ....   14

ORBITAL ENERGIES
----------------

  NO   OCC          E(Eh)            E(eV)
   0   2.0000      -1.316159       -35.8145
   1   2.0000      -0.678625       -18.4663
   2   2.0000      -0.678625       -18.4663
   3   2.0000      -0.678625       -18.4663
   4   1.0000      -0.128603        -3.4995
   5   0.0000      -0.082535        -2.2459
   6   0.0000      -0.082535        -2.2459
   7   0.0000      -0.082535        -2.2459
   8   0.0000      -0.045559        -1.2397
   9   0.0000       0.216856         5.9010

--------------------------
ATOM BASIS FOR ELEMENT Cs
--------------------------
 NewGTO Cs
 S 7
    1          5.877811344300         0.126790014184
    2          4.363153828600        -0.341451455837
    3          1.804847515500         0.689464224430
    4          0.374852371400        -0.872435139544
    5          0.163848587800        -0.407869153708
    6          0.027230462000        -0.006079499631
    7          0.011991533200         0.001480758869
 S 7
    1          5.877811344300         0.036109988975
    2          4.363153828600        -0.097245894208
    3          1.804847515500         0.196360460273
    4          0.374852371400        -0.297754117008
    5          0.163848587800        -0.298067676241
    6          0.027230462000         0.831612561524
    7          0.011991533200         0.328423188617
 S 7
    1          5.877811344300         0.022918494402
    2          4.363153828600        -0.061720580515
    3          1.804847515500         0.124627180377
    4          0.374852371400        -0.103714878859
    5          0.163848587800        -0.507488110781
    6          0.027230462000         2.515664818497
    7          0.011991533200        -2.331265524431
 S 7
    1          5.877811344300        -0.189919919013
    2          4.363153828600         0.511463250927
    3          1.804847515500        -1.032754752095
    4          0.374852371400         3.363722113421
    5          0.163848587800        -3.417085359293
    6          0.027230462000         1.590504314813
    7          0.011991533200        -0.807050542320
 S 7
    1          5.877811344300         0.376245425716
    2          4.363153828600        -1.013246580887
    3          1.804847515500         2.045963653418
    4          0.374852371400        -1.243684398079
    5          0.163848587800         0.744147409133
    6          0.027230462000        -0.235970411050
    7          0.011991533200         0.120287713246
 P 6
    1          4.275185615400        -0.040996106707
    2          1.965666336000         0.224333347786
    3          0.476891952100        -0.499064900462
    4          0.215297495900        -0.521997715167
    5          0.091450850300        -0.133182701757
    6          0.017592078500        -0.001397521897
 P 6
    1          4.275185615400        -0.006289327027
    2          1.965666336000         0.034415604327
    3          0.476891952100        -0.076562937777
    4          0.215297495900        -0.080081124818
    5          0.091450850300        -0.105074722640
    6          0.017592078500         1.047995141299
 P 6
    1          4.275185615400        -0.050303860391
    2          1.965666336000         0.275265978031
    3          0.476891952100        -0.612372566461
    4          0.215297495900        -0.640512046084
    5          0.091450850300         1.590883490500
    6          0.017592078500        -0.514034712534
 end
  // -----------------------------------------------
  // The basis set
  // -----------------------------------------------
  BAS[ATNO] = new BFNGauss[NSH];
  // Basis function   1 L = s
  InitBFNGauss(BAS[ATNO][  0]);
  BAS[ATNO][  0].l  = 0;
  BAS[ATNO][  0].ng = 7;
  BAS[ATNO][  0].a[  0] =         5.877811344300;     BAS[ATNO][  0].d[  0] =        -0.126790014184;
  BAS[ATNO][  0].a[  1] =         4.363153828600;     BAS[ATNO][  0].d[  1] =         0.341451455837;
  BAS[ATNO][  0].a[  2] =         1.804847515500;     BAS[ATNO][  0].d[  2] =        -0.689464224430;
  BAS[ATNO][  0].a[  3] =         0.374852371400;     BAS[ATNO][  0].d[  3] =         0.872435139544;
  BAS[ATNO][  0].a[  4] =         0.163848587800;     BAS[ATNO][  0].d[  4] =         0.407869153708;
  BAS[ATNO][  0].a[  5] =         0.027230462000;     BAS[ATNO][  0].d[  5] =         0.006079499631;
  BAS[ATNO][  0].a[  6] =         0.011991533200;     BAS[ATNO][  0].d[  6] =        -0.001480758869;

FINAL SINGLE POINT ENERGY       -19.855059448518

DIPOLE MOMENT
-------------
                                X             Y             Z
Electronic contribution:      0.00000      -0.00000       0.00000
Nuclear contribution   :      0.00000       0.00000       0.00000
                        -----------------------------------------
Total Dipole Moment    :      0.00000      -0.00000       0.00000
                        -----------------------------------------
Magnitude (a.u.)       :      0.00000
Magnitude (Debye)      :      0.00000

Rotational constants in cm-1:     0.000000     0.000000     0.000000
Rotational constants in MHz :     0.000000     0.000000     0.000000

                             ****ORCA TERMINATED NORMALLY****
TOTAL RUN TIME: 0 days 0 hours 0 minutes 1 seconds 37 msec
