                         Program Version 4.2.0 -  RELEASE  -
|  1> #
|  2> # 56_Ba CCSD(T)/Def2-TZVP
|  3> #
|  4> ! CCSD(T) Def2-TZVP tightscf
|  5>
|  6> *xyz 0 1
|  7>  Ba 0.0 0.0 0.0
|  8> *
|  9>
| 10> %maxcore 5000
| 11>
| 12> %pal
| 13> nprocs 15
| 14> end
| 15>
| 16> %method
| 17> NewNCore Ba 46 end
| 18> end
| 19>
| 20>
| 21>                          ****END OF INPUT****

CARTESIAN COORDINATES (ANGSTROEM)
---------------------------------
  Ba     0.000000    0.000000    0.000000

 Total Charge           Charge          ....    0
 Multiplicity           Mult            ....    1
 Number of Electrons    NEL             ....   10
 Basis Dimension        Dim             ....   40

ORBITAL ENERGIES
----------------

  NO   OCC          E(Eh)            E(eV)
   0   2.0000      -1.631750       -44.4022
   1   2.0000      -0.911784       -24.8109
   2   2.0000      -0.911783       -24.8109
   3   2.0000      -0.911783       -24.8109
   4   2.0000      -0.162478        -4.4212
   5   0.0000       0.015119         0.4114
   6   0.0000       0.015119         0.4114
   7   0.0000       0.015120         0.4114
   8   0.0000       0.056460         1.5364
   9   0.0000       0.056460         1.5364

E(0)                                       ...    -25.094894963
E(0)                                       ...    -25.094894963
E(CORR)                                    ...     -0.173175180
E(TOT)                                     ...    -25.268070143
E(CCSD(T))                                 ...    -25.273438722

MULLIKEN ATOMIC CHARGES
-----------------------
   0 Ba:    0.000000
Sum of atomic charges:    0.0000000

LOEWDIN ATOMIC CHARGES
----------------------
   0 Ba:    0.000000

FINAL SINGLE POINT ENERGY       -25.273438721575

DIPOLE MOMENT
-------------
                                X             Y             Z
Electronic contribution:     -0.00000      -0.00000      -0.00000
Nuclear contribution   :      0.00000       0.00000       0.00000
                        -----------------------------------------
Total Dipole Moment    :     -0.00000      -0.00000      -0.00000
                        -----------------------------------------
Magnitude (a.u.)       :      0.00000
Magnitude (Debye)      :      0.00000

Rotational constants in cm-1:     0.000000     0.000000     0.000000
Rotational constants in MHz :     0.000000     0.000000     0.000000

                             ****ORCA TERMINATED NORMALLY****
TOTAL RUN TIME: 0 days 0 hours 0 minutes 7 seconds 12 msec
