                         Program Version 4.2.0 -  RELEASE  -
|  1> # input to generate an atomic fitting density for Ba
|  2> # this file is use internally by ORCA
|  3> #
|  4> # atomic ground state (S=1): 1s2 2s2 2p6 3s2 3p6 4s2 3d10 4p6 5s2 4d10 5p6 6s2
|  5> #
|  6> ! RHF AllowRHF def2-SVP def2/J  NoMulliken NoLoewdin NoMayer NoPrintMOs
|  7>
|  8> %output print[p_atomdensfit] 2 end
|  9>
| 10> %scf
| 11>   guess hcore
| 12>   maxiter 1000
| 13>   maxdisk 500000
| 14>   SCFMode Conventional
| 15>   lshift 1.000000
| 16>   hftyp rohf
| 17>   rohf_case sahf
| 18>   rohf_numop   2
| 19>   rohf_norb[1] 1
| 20>   rohf_nel[1]  2
| 21> end
| 22>
| 23> %basis
| 24>   NewECP 56
| 25>     N_core 46
| 26>     lmax f
| 27>     s 3
| 28>       1       9.5269860000    427.8458160000  2
| 29>       2       4.4875100000    204.4175300000  2
| 30>       3       3.5894650000     33.4731740000  2
| 31>     p 3
| 32>       1       8.3159300000    293.6058640000  2
| 33>       2       4.2922170000    294.1933160000  2
| 34>       3       3.5894650000     33.4731740000  2
| 35>     d 3
| 36>       1       5.9161080000    112.5504020000  2
| 37>       2       2.8748420000    181.7826210000  2
| 38>       3       3.5894650000     33.4731740000  2
| 39>     f 1
| 40>       1       3.5894650000    -33.4731740000  2
| 41>   end
| 42>   NewGTO 56
| 43>     s 2
| 44>      1       6.0000000000     -1.3541492382
| 45>      2       4.9822082226      2.3335596784
| 46>     s 1
| 47>      1       2.1451943914      1.0000000000
| 48>     s 1
| 49>      1       0.4148617410      1.0000000000
| 50>     s 1
| 51>      1       0.1921475702      1.0000000000
| 52>     s 1
| 53>      1       0.0484658903      1.0000000000
| 54>     s 1
| 55>      1       0.0201382989      1.0000000000
| 56>     p 4
| 57>      1       5.5000000000     -0.7557615693
| 58>      2       4.9017938336      1.1484911917
| 59>      3       2.6142685062     -0.7799032231
| 60>      4       0.4790339498      1.1653421903
| 61>     p 1
| 62>      1       0.1941513875      1.0000000000
| 63>     p 1
| 64>      1       0.0349176220      1.0000000000
| 65>     p 1
| 66>      1       0.0163200657      1.0000000000
| 67>   end
| 68>   NewAuxGTO 56
| 69>     S 1
| 70>      1 1310.72 1.0
| 71>     S 1
| 72>      1  655.36 1.0
| 73>     S 1
| 74>      1  327.68 1.0
| 75>     S 1
| 76>      1  163.84 1.0
| 77>     S 1
| 78>      1   81.82 1.0
| 79>     S 1
| 80>      1   40.96 1.0
| 81>     S 1
| 82>      1   20.48 1.0
| 83>     S 1
| 84>      1   10.24 1.0
| 85>     S 1
| 86>      1    5.12 1.0
| 87>     S 1
| 88>      1    2.56 1.0
| 89>     S 1
| 90>      1    1.28 1.0
| 91>     S 1
| 92>      1    0.64 1.0
| 93>     S 1
| 94>      1    0.32 1.0
| 95>     S 1
| 96>      1    0.16 1.0
| 97>     S 1
| 98>      1    0.08 1.0
| 99>     S 1
|100>      1    0.04 1.0
|101>     S 1
|102>      1    0.02 1.0
|103>     S 1
|104>      1    0.01 1.0
|105>   end
|106> end
|107>
|108> * xyz 0 1
|109> 56  0.0 0.0 0.0
|110> *
|111>
|112>
|113>                          ****END OF INPUT****

CARTESIAN COORDINATES (ANGSTROEM)
---------------------------------
  Ba     0.000000    0.000000    0.000000

 Total Charge           Charge          ....    0
 Multiplicity           Mult            ....    1
 Number of Electrons    NEL             ....   10
 Basis Dimension        Dim             ....   18

ORBITAL ENERGIES
----------------

  NO   OCC          E(Eh)            E(eV)
   0   2.0000      -1.558788       -42.4168
   1   2.0000      -0.911648       -24.8072
   2   2.0000      -0.911648       -24.8072
   3   2.0000      -0.911648       -24.8072
   4   2.0000      -0.235276        -6.4022
   5   0.0000       0.015141         0.4120
   6   0.0000       0.015141         0.4120
   7   0.0000       0.015141         0.4120
   8   0.0000       0.092209         2.5091
   9   0.0000       0.092910         2.5282

--------------------------
ATOM BASIS FOR ELEMENT Ba
--------------------------
 NewGTO Ba
 S 7
    1          6.000000000000        -0.592296692785
    2          4.982208222600         1.020684900114
    3          2.145194391400        -0.996675451620
    4          0.414861741000         1.020004577031
    5          0.192147570200         0.424785532841
    6          0.048465890300        -0.147892939948
    7          0.020138298900        -0.122593317712
 S 7
    1          6.000000000000        -0.051800620392
    2          4.982208222600         0.089266260802
    3          2.145194391400        -0.097474494163
    4          0.414861741000         0.189304648249
    5          0.192147570200         0.251537485943
    6          0.048465890300        -0.675317499297
    7          0.020138298900        -0.531282949096
 S 7
    1          6.000000000000        -0.132332524916
    2          4.982208222600         0.228044173843
    3          2.145194391400        -0.228583290808
    4          0.414861741000         0.132437027050
    5          0.192147570200         0.875863299485
    6          0.048465890300        -2.858859097893
    7          0.020138298900         2.295307325615
 S 7
    1          6.000000000000        -0.744679012819
    2          4.982208222600         1.283280209185
    3          2.145194391400        -1.345342950143
    4          0.414861741000         4.074205943177
    5          0.192147570200        -4.629173453538
    6          0.048465890300         2.377881464627
    7          0.020138298900        -0.999541311272
 S 7
    1          6.000000000000        -3.449367454562
    2          4.982208222600         5.944178515102
    3          2.145194391400        -3.771926216220
    4          0.414861741000         1.868990514909
    5          0.192147570200        -1.319070648467
    6          0.048465890300         0.482970195574
    7          0.020138298900        -0.200040361472
 S 7
    1          6.000000000000        -3.214328833424
    2          4.982208222600         5.539144392066
    3          2.145194391400        -1.800551875107
    4          0.414861741000         0.692084294901
    5          0.192147570200        -0.480322293508
    6          0.048465890300         0.175603231782
    7          0.020138298900        -0.072866739819
 P 7
    1          5.500000000000        -0.445859706630
    2          4.901793833600         0.677549595797
    3          2.614268506200        -0.460102016795
    4          0.479033949800         0.687490801592
    5          0.194151387500         0.452107848099
    6          0.034917622000         0.026790656540
    7          0.016320065700        -0.009283246800
 P 7
    1          5.500000000000        -0.061684335917
    2          4.901793833600         0.093738447870
    3          2.614268506200        -0.063654748204
    4          0.479033949800         0.095113805788
    5          0.194151387500         0.108230990492
    6          0.034917622000        -0.103844782768
    7          0.016320065700        -0.928811781048
 P 7
    1          5.500000000000        -0.112263573453
    2          4.901793833600         0.170601060569
    3          2.614268506200        -0.115849662552
    4          0.479033949800         0.173104169216
    5          0.194151387500         0.282584285652
    6          0.034917622000        -2.014292723103
    7          0.016320065700         1.664351595650
 P 7
    1          5.500000000000        -1.311295076958
    2          4.901793833600         1.992706306832
    3          2.614268506200        -1.353182403680
    4          0.479033949800         2.021943876462
    5          0.194151387500        -2.024901970291
    6          0.034917622000         0.969228027058
    7          0.016320065700        -0.544236043260
 end
  // -----------------------------------------------
  // The basis set
  // -----------------------------------------------
  BAS[ATNO] = new BFNGauss[NSH];
  // Basis function   1 L = s
  InitBFNGauss(BAS[ATNO][  0]);
  BAS[ATNO][  0].l  = 0;
  BAS[ATNO][  0].ng = 7;
  BAS[ATNO][  0].a[  0] =         6.000000000000;     BAS[ATNO][  0].d[  0] =        -0.592296692785;
  BAS[ATNO][  0].a[  1] =         4.982208222600;     BAS[ATNO][  0].d[  1] =         1.020684900114;
  BAS[ATNO][  0].a[  2] =         2.145194391400;     BAS[ATNO][  0].d[  2] =        -0.996675451620;
  BAS[ATNO][  0].a[  3] =         0.414861741000;     BAS[ATNO][  0].d[  3] =         1.020004577031;
  BAS[ATNO][  0].a[  4] =         0.192147570200;     BAS[ATNO][  0].d[  4] =         0.424785532841;
  BAS[ATNO][  0].a[  5] =         0.048465890300;     BAS[ATNO][  0].d[  5] =        -0.147892939948;
  BAS[ATNO][  0].a[  6] =         0.020138298900;     BAS[ATNO][  0].d[  6] =        -0.122593317712;

FINAL SINGLE POINT ENERGY       -25.094894840571

DIPOLE MOMENT
-------------
                                X             Y             Z
Electronic contribution:      0.00000      -0.00000      -0.00000
Nuclear contribution   :      0.00000       0.00000       0.00000
                        -----------------------------------------
Total Dipole Moment    :      0.00000      -0.00000      -0.00000
                        -----------------------------------------
Magnitude (a.u.)       :      0.00000
Magnitude (Debye)      :      0.00000

Rotational constants in cm-1:     0.000000     0.000000     0.000000
Rotational constants in MHz :     0.000000     0.000000     0.000000

                             ****ORCA TERMINATED NORMALLY****
TOTAL RUN TIME: 0 days 0 hours 0 minutes 0 seconds 951 msec
