                         Program Version 4.2.0 -  RELEASE  -
|  1> # input to generate an atomic fitting density for La
|  2> # this file is use internally by ORCA
|  3> #
|  4> # atomic ground state (S=2): 1s2 2s2 2p6 3s2 3p6 4s2 3d10 4p6 5s2 4d10 5p6 6s2 5d1
|  5> #
|  6> ! RHF AllowRHF def2-SVP def2/J  NoMulliken NoLoewdin NoMayer NoPrintMOs
|  7>
|  8> %output print[p_atomdensfit] 2 end
|  9>
| 10> %scf
| 11>   guess hcore
| 12>   maxiter 1000
| 13>   maxdisk 500000
| 14>   SCFMode Conventional
| 15>   lshift 0.100000
| 16>   hftyp rohf
| 17>   rohf_case sahf
| 18>   rohf_numop   2
| 19>   rohf_norb[1] 5
| 20>   rohf_nel[1]  1
| 21> end
| 22>
| 23> %basis
| 24>   NewECP 57
| 25>     N_core 46
| 26>     lmax f
| 27>     s 3
| 28>       1       3.3099000000     91.9321770000  2
| 29>       2       1.6550000000     -3.7887640000  2
| 30>       3       4.0286000000     36.0100160000  2
| 31>     p 3
| 32>       1       2.8368000000     63.7594860000  2
| 33>       2       1.4184000000     -0.6479580000  2
| 34>       3       4.0286000000     36.0100160000  2
| 35>     d 3
| 36>       1       2.0213000000     36.1161730000  2
| 37>       2       1.0107000000      0.2191140000  2
| 38>       3       4.0286000000     36.0100160000  2
| 39>     f 1
| 40>       1       4.0286000000    -36.0100160000  2
| 41>   end
| 42>   NewGTO 57
| 43>     s 2
| 44>      1       5.0873990000     -1.0479303431
| 45>      2       4.2709780000      2.0356668806
| 46>     s 1
| 47>      1       2.1823656045      1.0000000000
| 48>     s 1
| 49>      1       0.4896653378      1.0000000000
| 50>     s 1
| 51>      1       0.2330167535      1.0000000000
| 52>     s 1
| 53>      1       0.0557195231      1.0000000000
| 54>     s 1
| 55>      1       0.0228547088      1.0000000000
| 56>     p 4
| 57>      1       6.0000000000     -0.0332796858
| 58>      2       3.6808191615      0.4284807406
| 59>      3       2.3265462081     -1.0389154466
| 60>      4       0.6434262963      1.3382857902
| 61>     p 1
| 62>      1       0.3358428196      1.0000000000
| 63>     p 1
| 64>      1       0.1651905192      1.0000000000
| 65>     p 1
| 66>      1       0.0354000000      1.0000000000
| 67>     d 3
| 68>      1       1.2675288018     -0.3307279350
| 69>      2       0.8939534028      0.4732395193
| 70>      3       0.3309576734      0.8396218523
| 71>     d 1
| 72>      1       0.1346137750      1.0000000000
| 73>     d 1
| 74>      1       0.0514416298      1.0000000000
| 75>     f 1
| 76>      1       0.2568300000      1.0000000000
| 77>   end
| 78>   NewAuxGTO 57
| 79>     S 1
| 80>      1 1310.72 1.0
| 81>     S 1
| 82>      1  655.36 1.0
| 83>     S 1
| 84>      1  327.68 1.0
| 85>     S 1
| 86>      1  163.84 1.0
| 87>     S 1
| 88>      1   81.82 1.0
| 89>     S 1
| 90>      1   40.96 1.0
| 91>     S 1
| 92>      1   20.48 1.0
| 93>     S 1
| 94>      1   10.24 1.0
| 95>     S 1
| 96>      1    5.12 1.0
| 97>     S 1
| 98>      1    2.56 1.0
| 99>     S 1
|100>      1    1.28 1.0
|101>     S 1
|102>      1    0.64 1.0
|103>     S 1
|104>      1    0.32 1.0
|105>     S 1
|106>      1    0.16 1.0
|107>     S 1
|108>      1    0.08 1.0
|109>     S 1
|110>      1    0.04 1.0
|111>     S 1
|112>      1    0.02 1.0
|113>     S 1
|114>      1    0.01 1.0
|115>   end
|116> end
|117>
|118> * xyz 0 2
|119> 57  0.0 0.0 0.0
|120> *
|121>
|122>
|123>                          ****END OF INPUT****

CARTESIAN COORDINATES (ANGSTROEM)
---------------------------------
  La     0.000000    0.000000    0.000000

 Total Charge           Charge          ....    0
 Multiplicity           Mult            ....    2
 Number of Electrons    NEL             ....   11
 Basis Dimension        Dim             ....   40

ORBITAL ENERGIES
----------------

  NO   OCC          E(Eh)            E(eV)
   0   2.0000      -1.897021       -51.6206
   1   2.0000      -1.101653       -29.9775
   2   2.0000      -1.099930       -29.9306
   3   2.0000      -1.099930       -29.9306
   4   2.0000      -0.201180        -5.4744
   5   0.2000      -0.219949        -5.9851
   6   0.2000      -0.219949        -5.9851
   7   0.2000      -0.218468        -5.9448
   8   0.2000      -0.148455        -4.0397
   9   0.2000      -0.148455        -4.0397
  10   0.0000      -0.144523        -3.9327
  11   0.0000      -0.206657        -5.6234
  12   0.0000      -0.206657        -5.6234
  13   0.0000      -0.052505        -1.4287
  14   0.0000       0.016767         0.4563

CleanUpVectors: The p-vectors have cracked symmetry
CleanUpVectors: The p-vectors have cracked symmetry
CleanUpVectors: The p-vectors have cracked symmetry
CleanUpVectors: The d-vectors have cracked symmetry at i=5
CleanUpVectors: The d-vectors have cracked symmetry at i=6
CleanUpVectors: The d-vectors have cracked symmetry at i=7
CleanUpVectors: The p-vectors have cracked symmetry
CleanUpVectors: The p-vectors have cracked symmetry
CleanUpVectors: The p-vectors have cracked symmetry
CleanUpVectors: The d-vectors have cracked symmetry at i=11
CleanUpVectors: The d-vectors have cracked symmetry at i=12
CleanUpVectors: The d-vectors have cracked symmetry at i=14
CleanUpVectors: The d-vectors have cracked symmetry at i=15
CleanUpVectors: The d-vectors have cracked symmetry at i=16
CleanUpVectors: The d-vectors have cracked symmetry at i=17
CleanUpVectors: The d-vectors have cracked symmetry at i=18
CleanUpVectors: The p-vectors have cracked symmetry
CleanUpVectors: The p-vectors have cracked symmetry
CleanUpVectors: The p-vectors have cracked symmetry
CleanUpVectors: The f-vectors have cracked symmetry
CleanUpVectors: The f-vectors have cracked symmetry
CleanUpVectors: The f-vectors have cracked symmetry
CleanUpVectors: The f-vectors have cracked symmetry
CleanUpVectors: The f-vectors have cracked symmetry
CleanUpVectors: The f-vectors have cracked symmetry
CleanUpVectors: The f-vectors have cracked symmetry
CleanUpVectors: The d-vectors have cracked symmetry at i=29
CleanUpVectors: The d-vectors have cracked symmetry at i=30
CleanUpVectors: The d-vectors have cracked symmetry at i=31
CleanUpVectors: The d-vectors have cracked symmetry at i=32
CleanUpVectors: The d-vectors have cracked symmetry at i=33
CleanUpVectors: The p-vectors have cracked symmetry
CleanUpVectors: The p-vectors have cracked symmetry
CleanUpVectors: The p-vectors have cracked symmetry
--------------------------
ATOM BASIS FOR ELEMENT La
--------------------------
 NewGTO La
 S 7
    1          5.087399000000        -0.497190239345
    2          4.270978000000         0.965821545541
    3          2.182365604500        -1.037263588621
    4          0.489665337800         0.931842262387
    5          0.233016753500         0.420781816876
    6          0.055719523100         0.006752681407
    7          0.022854708800        -0.001069897773
 P 20
    1          6.000000000000         0.009058771868
    2          3.680819161500        -0.116632990540
    3          2.326546208100         0.282794076779
    4          0.643426296300        -0.364283056667
    5          6.000000000000        -0.007003216656
    6          3.680819161500         0.090167421578
    7          2.326546208100        -0.218624358532
    8          0.643426296300         0.281622410537
    9          6.000000000000        -0.000697913015
   10          3.680819161500         0.008985730431
   11          2.326546208100        -0.021787243298
   12          0.643426296300         0.028065381267
   13          0.335842819600        -0.409085530005
   14          0.335842819600         0.316258609802
   15          0.335842819600         0.031517088594
   16          0.165190519200        -0.149687382880
   17          0.165190519200         0.115721334886
   18          0.165190519200         0.011532332878
   19          0.035400000000        -0.006520355641
   20          0.035400000000         0.005040800662
 S 7
    1          5.087399000000        -0.178293503269
    2          4.270978000000         0.346345710878
    3          2.182365604500        -0.389711699268
    4          0.489665337800         0.476315791383
    5          0.233016753500         0.350781374232
    6          0.055719523100        -0.830389492673
    7          0.022854708800        -0.415121208040
 D 20
    1          5.087399000000        -0.000285692568
    2          4.270978000000         0.000661061254
    3          2.182365604500        -0.001461133703
    4          0.489665337800         0.008444222576
    5          0.233016753500         0.011611627037
    6          0.055719523100        -0.141873339077
    7          0.022854708800        -0.106130419608
    8          1.267528801800        -0.074387269794
    9          0.893953402800         0.106440950624
   10          0.330957673400         0.188847601434
   11          1.267528801800         0.142656065205
   12          0.893953402800        -0.204126959287
   13          0.330957673400        -0.362162179344
   14          1.267528801800         0.014214343679
   15          0.893953402800        -0.020339343786
   16          0.330957673400        -0.036086076517
   17          1.267528801800        -0.054599617138
   18          0.893953402800         0.078126743567
   19          0.330957673400         0.138612517494
   20          1.267528801800        -0.010994398724
 D 20
    1          1.267528801800         0.031336408820
    2          0.893953402800        -0.044839354277
    3          0.330957673400        -0.079554010514
    4          1.267528801800         0.054942405255
    5          0.893953402800        -0.078617240035
    6          0.330957673400        -0.139482756636
    7          1.267528801800        -0.081656942969
    8          0.893953402800         0.116843146129
    9          0.330957673400         0.207303183231
   10          1.267528801800         0.098528882771
   11          0.893953402800        -0.140985251578
   12          0.330957673400        -0.250136121878
   13          1.267528801800        -0.094002564760
   14          0.893953402800         0.134508530585
   15          0.330957673400         0.238645119424
   16          0.134613775000        -0.082447690905
   17          0.134613775000        -0.144556272291
   18          0.134613775000         0.214843584431
   19          0.134613775000        -0.259234519134
   20          0.134613775000         0.247325545440
 D 20
    1          1.267528801800         0.110361604961
    2          0.893953402800        -0.157916726571
    3          0.330957673400        -0.280175955442
    4          1.267528801800         0.029179061271
    5          0.893953402800        -0.041752399686
    6          0.330957673400        -0.074077133740
    7          1.267528801800         0.035041214845
    8          0.893953402800        -0.050140571490
    9          0.330957673400        -0.088959433423
   10          1.267528801800        -0.057561557099
   11          0.893953402800         0.082364991672
   12          0.330957673400         0.146132019943
   13          1.267528801800        -0.036928037253
   14          0.893953402800         0.052840430906
   15          0.330957673400         0.093749525693
   16          0.134613775000        -0.276005402570
   17          0.134613775000        -0.072974460235
   18          0.134613775000        -0.087635229781
   19          0.134613775000         0.143956775053
   20          0.134613775000         0.092354019241
 D 20
    1          1.267528801800         0.080724510463
    2          0.893953402800        -0.115508925871
    3          0.330957673400        -0.204936008811
    4          1.267528801800         0.021343160382
    5          0.893953402800        -0.030539987375
    6          0.330957673400        -0.054184064778
    7          1.267528801800         0.025631060159
    8          0.893953402800        -0.036675555056
    9          0.330957673400        -0.065069792810
   10          1.267528801800        -0.042103669267
   11          0.893953402800         0.060246257107
   12          0.330957673400         0.106888947190
   13          1.267528801800        -0.027011185160
   14          0.893953402800         0.038650379747
   15          0.330957673400         0.068573528017
   16          0.134613775000        -0.615289448153
   17          0.134613775000        -0.162679479850
   18          0.134613775000        -0.195362235958
   19          0.134613775000         0.320917937808
   20          0.134613775000         0.205881672315
 P 20
    1          6.000000000000         0.000115597089
    2          3.680819161500        -0.001488329151
    3          2.326546208100         0.003608675952
    4          0.643426296300        -0.004648539748
    5          6.000000000000        -0.000089366580
    6          3.680819161500         0.001150607572
    7          2.326546208100        -0.002789819625
    8          0.643426296300         0.003593724565
    9          6.000000000000        -0.000008905922
   10          3.680819161500         0.000114665023
   11          2.326546208100        -0.000278022446
   12          0.643426296300         0.000358136449
   13          0.335842819600        -0.023361741548
   14          0.335842819600         0.018060653244
   15          0.335842819600         0.001799853635
   16          0.165190519200         0.037408041494
   17          0.165190519200        -0.028919661858
   18          0.165190519200        -0.002882019704
   19          0.035400000000        -0.008500920311
   20          0.035400000000         0.006571948999
 F 20
    1          3.680819161500         0.000000002319
    2          2.326546208100        -0.000000008896
    3          3.680819161500         0.000000004188
    4          2.326546208100        -0.000000016067
    5          0.643426296300         0.000000074836
    6          6.000000000000         0.000000000568
    7          3.680819161500        -0.000000011928
    8          2.326546208100         0.000000045756
    9          0.643426296300        -0.000000213124
   10          0.335842819600         0.000000355198
   11          0.335842819600         0.000000641534
   12          0.335842819600        -0.000001827077
   13          0.165190519200        -0.000001129154
   14          0.165190519200        -0.000002039411
   15          0.165190519200         0.000005808297
   16          0.256830000000         0.142565980615
   17          0.256830000000         0.246164941506
   18          0.256830000000        -0.204393776649
   19          0.256830000000         0.540009767728
   20          0.256830000000        -0.269403710858
 D 20
    1          5.087399000000        -0.000000119177
    2          4.270978000000         0.000000275763
    3          2.182365604500        -0.000000615271
    4          0.489665337800         0.000007051767
    5          0.233016753500        -0.000014887396
    6          0.055719523100         0.000022114565
    7          1.267528801800         0.119019292226
    8          0.893953402800        -0.170305035286
    9          0.330957673400        -0.302155300543
   10          1.267528801800         0.160721070354
   11          0.893953402800        -0.229976225249
   12          0.330957673400        -0.408023963245
   13          1.267528801800         0.169073745697
   14          0.893953402800        -0.241928091560
   15          0.330957673400        -0.429228971957
   16          1.267528801800         0.251786187214
   17          0.893953402800        -0.360281553488
   18          0.330957673400        -0.639211758427
   19          1.267528801800         0.250654928241
   20          0.893953402800        -0.358662831886
 end
  // -----------------------------------------------
  // The basis set
  // -----------------------------------------------
  BAS[ATNO] = new BFNGauss[NSH];
  // Basis function   1 L = s
  InitBFNGauss(BAS[ATNO][  0]);
  BAS[ATNO][  0].l  = 0;
  BAS[ATNO][  0].ng = 7;
  BAS[ATNO][  0].a[  0] =         5.087399000000;     BAS[ATNO][  0].d[  0] =         0.497190239345;
  BAS[ATNO][  0].a[  1] =         4.270978000000;     BAS[ATNO][  0].d[  1] =        -0.965821545541;
  BAS[ATNO][  0].a[  2] =         2.182365604500;     BAS[ATNO][  0].d[  2] =         1.037263588621;
  BAS[ATNO][  0].a[  3] =         0.489665337800;     BAS[ATNO][  0].d[  3] =        -0.931842262387;
  BAS[ATNO][  0].a[  4] =         0.233016753500;     BAS[ATNO][  0].d[  4] =        -0.420781816876;
  BAS[ATNO][  0].a[  5] =         0.055719523100;     BAS[ATNO][  0].d[  5] =        -0.006752681407;
  BAS[ATNO][  0].a[  6] =         0.022854708800;     BAS[ATNO][  0].d[  6] =         0.001069897773;

FINAL SINGLE POINT ENERGY       -31.040501883894

DIPOLE MOMENT
-------------
                                X             Y             Z
Electronic contribution:     -0.00000      -0.00000       0.00000
Nuclear contribution   :      0.00000       0.00000       0.00000
                        -----------------------------------------
Total Dipole Moment    :     -0.00000      -0.00000       0.00000
                        -----------------------------------------
Magnitude (a.u.)       :      0.00000
Magnitude (Debye)      :      0.00000

Rotational constants in cm-1:     0.000000     0.000000     0.000000
Rotational constants in MHz :     0.000000     0.000000     0.000000

                             ****ORCA TERMINATED NORMALLY****
TOTAL RUN TIME: 0 days 0 hours 0 minutes 1 seconds 369 msec
