                         Program Version 4.2.0 -  RELEASE  -
|  1> #
|  2> # 63_Eu CCSD(T)/Def2-TZVP
|  3> #
|  4> ! CCSD(T) Def2-TZVP tightscf
|  5>
|  6> *xyz 0 8
|  7>  Eu 0.0 0.0 0.0
|  8> *
|  9>
| 10> %maxcore 5000
| 11>
| 12> %pal
| 13> nprocs 24
| 14> end
| 15>
| 16>
| 17>                          ****END OF INPUT****

CARTESIAN COORDINATES (ANGSTROEM)
---------------------------------
  Eu     0.000000    0.000000    0.000000

 Total Charge           Charge          ....    0
 Multiplicity           Mult            ....    8
 Number of Electrons    NEL             ....   35
 Basis Dimension        Dim             ....   93

ORBITAL ENERGIES
----------------
                 SPIN UP ORBITALS
  NO   OCC          E(Eh)            E(eV)
   0   1.0000     -14.806687      -402.9104
   1   1.0000     -10.794062      -293.7213
   2   1.0000     -10.794062      -293.7213
   3   1.0000     -10.794062      -293.7213
   4   1.0000      -5.904736      -160.6760
   5   1.0000      -5.904736      -160.6760
   6   1.0000      -5.904736      -160.6760
   7   1.0000      -5.904736      -160.6760
   8   1.0000      -5.904736      -160.6760
   9   1.0000      -2.103970       -57.2519
  10   1.0000      -1.146525       -31.1985
  11   1.0000      -1.146525       -31.1985
  12   1.0000      -1.146525       -31.1985
  13   1.0000      -0.544775       -14.8241
  14   1.0000      -0.544775       -14.8241
  15   1.0000      -0.544775       -14.8241
  16   1.0000      -0.544775       -14.8241
  17   1.0000      -0.544775       -14.8241
  18   1.0000      -0.544775       -14.8241
  19   1.0000      -0.544775       -14.8241
  20   1.0000      -0.184610        -5.0235
  21   0.0000       0.025086         0.6826
  22   0.0000       0.025086         0.6826
  23   0.0000       0.025086         0.6826
  24   0.0000       0.098781         2.6880
  25   0.0000       0.108750         2.9592

                 SPIN DOWN ORBITALS
  NO   OCC          E(Eh)            E(eV)
   0   1.0000     -14.331088      -389.9687
   1   1.0000     -10.265176      -279.3296
   2   1.0000     -10.265176      -279.3296
   3   1.0000     -10.265176      -279.3296
   4   1.0000      -5.218609      -142.0056
   5   1.0000      -5.218609      -142.0056
   6   1.0000      -5.218609      -142.0056
   7   1.0000      -5.218609      -142.0056
   8   1.0000      -5.218609      -142.0056
   9   1.0000      -1.935153       -52.6582
  10   1.0000      -1.017580       -27.6897
  11   1.0000      -1.017580       -27.6897
  12   1.0000      -1.017580       -27.6897
  13   1.0000      -0.176775        -4.8103
  14   0.0000       0.026548         0.7224
  15   0.0000       0.026548         0.7224
  16   0.0000       0.026548         0.7224
  17   0.0000       0.104194         2.8353
  18   0.0000       0.132353         3.6015

E(0)                                       ...   -708.378158831
E(0)                                       ...   -708.378158831
E(CORR)                                    ...     -0.859518448
E(TOT)                                     ...   -709.237677278
E(CCSD(T))                                 ...   -709.267813168

MULLIKEN ATOMIC CHARGES AND SPIN DENSITIES
------------------------------------------
   0 Eu:   -0.000000    7.000000
Sum of atomic charges       :   -0.0000000

LOEWDIN ATOMIC CHARGES AND SPIN DENSITIES
-----------------------------------------
   0 Eu:   -0.000000    7.000000

FINAL SINGLE POINT ENERGY      -709.267813167738

DIPOLE MOMENT
-------------
                                X             Y             Z
Electronic contribution:     -0.00000      -0.00000      -0.00000
Nuclear contribution   :      0.00000       0.00000       0.00000
                        -----------------------------------------
Total Dipole Moment    :     -0.00000      -0.00000      -0.00000
                        -----------------------------------------
Magnitude (a.u.)       :      0.00000
Magnitude (Debye)      :      0.00000

Rotational constants in cm-1:     0.000000     0.000000     0.000000
Rotational constants in MHz :     0.000000     0.000000     0.000000

                             ****ORCA TERMINATED NORMALLY****
TOTAL RUN TIME: 0 days 0 hours 1 minutes 43 seconds 831 msec
