                         Program Version 4.2.0 -  RELEASE  -
|  1> #
|  2> # 68_Er CCSD(T)/Def2-TZVP
|  3> #
|  4> ! CCSD(T) Def2-TZVP verytightscf kdiis
|  5>
|  6> *xyz 0 3
|  7>  Er 0.0 0.0 0.0
|  8> *
|  9>
| 10> %maxcore 5000
| 11>
| 12> %pal
| 13> nprocs 24
| 14> end
| 15>
| 16> %scf
| 17> diismaxeq 40
| 18> directresetfreq 1
| 19> end
| 20>
| 21>
| 22>                          ****END OF INPUT****

CARTESIAN COORDINATES (ANGSTROEM)
---------------------------------
  Er     0.000000    0.000000    0.000000

 Total Charge           Charge          ....    0
 Multiplicity           Mult            ....    3
 Number of Electrons    NEL             ....   40
 Basis Dimension        Dim             ....   96

ORBITAL ENERGIES
----------------
                 SPIN UP ORBITALS
  NO   OCC          E(Eh)            E(eV)
   0   1.0000     -17.779074      -483.7932
   1   1.0000     -12.434707      -338.3656
   2   1.0000     -12.332925      -335.5960
   3   1.0000     -12.332925      -335.5960
   4   1.0000      -6.332097      -172.3051
   5   1.0000      -6.315633      -171.8571
   6   1.0000      -6.315633      -171.8571
   7   1.0000      -6.263573      -170.4405
   8   1.0000      -6.220290      -169.2627
   9   1.0000      -2.322190       -63.1900
  10   1.0000      -1.254737       -34.1431
  11   1.0000      -1.213947       -33.0332
  12   1.0000      -1.213947       -33.0332
  13   1.0000      -0.624358       -16.9896
  14   1.0000      -0.597923       -16.2703
  15   1.0000      -0.580344       -15.7920
  16   1.0000      -0.580344       -15.7920
  17   1.0000      -0.552532       -15.0352
  18   1.0000      -0.514056       -13.9882
  19   1.0000      -0.514056       -13.9882
  20   1.0000      -0.191705        -5.2165
  21   0.0000       0.025026         0.6810
  22   0.0000       0.026215         0.7134
  23   0.0000       0.026215         0.7134
  24   0.0000       0.109185         2.9711
  25   0.0000       0.134851         3.6695

                 SPIN DOWN ORBITALS
  NO   OCC          E(Eh)            E(eV)
   0   1.0000     -17.608836      -479.1608
   1   1.0000     -12.193770      -331.8094
   2   1.0000     -12.175570      -331.3141
   3   1.0000     -12.175570      -331.3141
   4   1.0000      -6.149609      -167.3394
   5   1.0000      -6.034000      -164.1935
   6   1.0000      -6.027899      -164.0275
   7   1.0000      -6.027899      -164.0275
   8   1.0000      -6.027462      -164.0156
   9   1.0000      -2.275277       -61.9134
  10   1.0000      -1.205372       -32.7998
  11   1.0000      -1.185609       -32.2621
  12   1.0000      -1.185609       -32.2621
  13   1.0000      -0.515652       -14.0316
  14   1.0000      -0.515652       -14.0316
  15   1.0000      -0.455121       -12.3845
  16   1.0000      -0.422817       -11.5054
  17   1.0000      -0.422816       -11.5054
  18   1.0000      -0.189875        -5.1668
  19   0.0000       0.025290         0.6882
  20   0.0000       0.026558         0.7227
  21   0.0000       0.026558         0.7227
  22   0.0000       0.110488         3.0065
  23   0.0000       0.139844         3.8054

E(0)                                       ...  -1012.311721521
E(0)                                       ...  -1012.311721521
E(CORR)                                    ...     -1.146080806
E(TOT)                                     ...  -1013.457802326
E(CCSD(T))                                 ...  -1013.505982851

MULLIKEN ATOMIC CHARGES AND SPIN DENSITIES
------------------------------------------
   0 Er:    0.000000    2.000000
Sum of atomic charges       :    0.0000000

LOEWDIN ATOMIC CHARGES AND SPIN DENSITIES
-----------------------------------------
   0 Er:    0.000000    2.000000

FINAL SINGLE POINT ENERGY     -1013.505982851298

DIPOLE MOMENT
-------------
                                X             Y             Z
Electronic contribution:      0.00000       0.00000       0.00000
Nuclear contribution   :      0.00000       0.00000       0.00000
                        -----------------------------------------
Total Dipole Moment    :      0.00000       0.00000       0.00000
                        -----------------------------------------
Magnitude (a.u.)       :      0.00000
Magnitude (Debye)      :      0.00000

Rotational constants in cm-1:     0.000000     0.000000     0.000000
Rotational constants in MHz :     0.000000     0.000000     0.000000

                             ****ORCA TERMINATED NORMALLY****
TOTAL RUN TIME: 0 days 0 hours 1 minutes 51 seconds 197 msec
