                         Program Version 4.2.0 -  RELEASE  -
|  1> #
|  2> # 70_Yb CCSD(T)/Def2-TZVP
|  3> #
|  4> ! CCSD(T) Def2-TZVP tightscf
|  5>
|  6> *xyz 0 1
|  7>  Yb 0.0 0.0 0.0
|  8> *
|  9>
| 10> %maxcore 5000
| 11>
| 12> %pal
| 13> nprocs 24
| 14> end
| 15>
| 16>
| 17>                          ****END OF INPUT****

CARTESIAN COORDINATES (ANGSTROEM)
---------------------------------
  Yb     0.000000    0.000000    0.000000

 Total Charge           Charge          ....    0
 Multiplicity           Mult            ....    1
 Number of Electrons    NEL             ....   42
 Basis Dimension        Dim             ....   96

ORBITAL ENERGIES
----------------

  NO   OCC          E(Eh)            E(eV)
   0   2.0000     -18.802461      -511.6410
   1   2.0000     -12.951458      -352.4271
   2   2.0000     -12.951458      -352.4271
   3   2.0000     -12.951458      -352.4271
   4   2.0000      -6.210985      -169.0095
   5   2.0000      -6.210985      -169.0095
   6   2.0000      -6.210985      -169.0095
   7   2.0000      -6.210985      -169.0095
   8   2.0000      -6.210985      -169.0095
   9   2.0000      -2.377574       -64.6971
  10   2.0000      -1.273785       -34.6614
  11   2.0000      -1.273785       -34.6614
  12   2.0000      -1.273785       -34.6614
  13   2.0000      -0.527130       -14.3439
  14   2.0000      -0.527130       -14.3439
  15   2.0000      -0.527130       -14.3439
  16   2.0000      -0.527130       -14.3439
  17   2.0000      -0.527130       -14.3439
  18   2.0000      -0.527130       -14.3439
  19   2.0000      -0.527130       -14.3439
  20   2.0000      -0.193061        -5.2535
  21   0.0000       0.025185         0.6853
  22   0.0000       0.025185         0.6853
  23   0.0000       0.025185         0.6853
  24   0.0000       0.110645         3.0108
  25   0.0000       0.147446         4.0122

E(0)                                       ...  -1155.712404395
E(0)                                       ...  -1155.712404395
E(CORR)                                    ...     -1.280150939
E(TOT)                                     ...  -1156.992555334
E(CCSD(T))                                 ...  -1157.044910015

MULLIKEN ATOMIC CHARGES
-----------------------
   0 Yb:    0.000000
Sum of atomic charges:    0.0000000

LOEWDIN ATOMIC CHARGES
----------------------
   0 Yb:   -0.000000

FINAL SINGLE POINT ENERGY     -1157.044910015288

DIPOLE MOMENT
-------------
                                X             Y             Z
Electronic contribution:      0.00000      -0.00000      -0.00000
Nuclear contribution   :      0.00000       0.00000       0.00000
                        -----------------------------------------
Total Dipole Moment    :      0.00000      -0.00000      -0.00000
                        -----------------------------------------
Magnitude (a.u.)       :      0.00000
Magnitude (Debye)      :      0.00000

Rotational constants in cm-1:     0.000000     0.000000     0.000000
Rotational constants in MHz :     0.000000     0.000000     0.000000

                             ****ORCA TERMINATED NORMALLY****
TOTAL RUN TIME: 0 days 0 hours 0 minutes 38 seconds 754 msec
