                         Program Version 4.2.0 -  RELEASE  -
|  1> #
|  2> # 71_Lu CCSD(T)/Def2-TZVP
|  3> #
|  4> ! CCSD(T) Def2-TZVP tightscf
|  5>
|  6> *xyz 0 2
|  7>  Lu 0.0 0.0 0.0
|  8> *
|  9>
| 10> %maxcore 5000
| 11>
| 12> %pal
| 13> nprocs 24
| 14> end
| 15>
| 16>
| 17>                          ****END OF INPUT****

CARTESIAN COORDINATES (ANGSTROEM)
---------------------------------
  Lu     0.000000    0.000000    0.000000

 Total Charge           Charge          ....    0
 Multiplicity           Mult            ....    2
 Number of Electrons    NEL             ....   43
 Basis Dimension        Dim             ....   96

ORBITAL ENERGIES
----------------
                 SPIN UP ORBITALS
  NO   OCC          E(Eh)            E(eV)
   0   1.0000     -20.361377      -554.0612
   1   1.0000     -13.599432      -370.0594
   2   1.0000     -13.593680      -369.9028
   3   1.0000     -13.593679      -369.9028
   4   1.0000      -6.593925      -179.4298
   5   1.0000      -6.582467      -179.1180
   6   1.0000      -6.579735      -179.0437
   7   1.0000      -6.579734      -179.0437
   8   1.0000      -6.571623      -178.8229
   9   1.0000      -2.721611       -74.0588
  10   1.0000      -1.454741       -39.5855
  11   1.0000      -1.454738       -39.5854
  12   1.0000      -1.436204       -39.0811
  13   1.0000      -0.827870       -22.5275
  14   1.0000      -0.827115       -22.5069
  15   1.0000      -0.827114       -22.5069
  16   1.0000      -0.825710       -22.4687
  17   1.0000      -0.823447       -22.4071
  18   1.0000      -0.820958       -22.3394
  19   1.0000      -0.820958       -22.3394
  20   1.0000      -0.232018        -6.3135
  21   1.0000      -0.199324        -5.4239
  22   0.0000       0.024968         0.6794
  23   0.0000       0.024968         0.6794
  24   0.0000       0.031190         0.8487
  25   0.0000       0.108582         2.9547
  26   0.0000       0.112443         3.0597

                 SPIN DOWN ORBITALS
  NO   OCC          E(Eh)            E(eV)
   0   1.0000     -20.360304      -554.0320
   1   1.0000     -13.600329      -370.0838
   2   1.0000     -13.591607      -369.8464
   3   1.0000     -13.591605      -369.8464
   4   1.0000      -6.582262      -179.1125
   5   1.0000      -6.580599      -179.0672
   6   1.0000      -6.580598      -179.0672
   7   1.0000      -6.576443      -178.9541
   8   1.0000      -6.571348      -178.8155
   9   1.0000      -2.701107       -73.5009
  10   1.0000      -1.432767       -38.9876
  11   1.0000      -1.403278       -38.1851
  12   1.0000      -1.403273       -38.1850
  13   1.0000      -0.827342       -22.5131
  14   1.0000      -0.826641       -22.4940
  15   1.0000      -0.826640       -22.4940
  16   1.0000      -0.825183       -22.4544
  17   1.0000      -0.821367       -22.3505
  18   1.0000      -0.816465       -22.2172
  19   1.0000      -0.816465       -22.2171
  20   1.0000      -0.211705        -5.7608
  21   0.0000       0.023392         0.6365
  22   0.0000       0.037312         1.0153
  23   0.0000       0.037314         1.0154
  24   0.0000       0.113119         3.0781
  25   0.0000       0.121296         3.3006

E(0)                                       ...  -1232.383306428
E(0)                                       ...  -1232.383306428
E(CORR)                                    ...     -0.852610094
E(TOT)                                     ...  -1233.235916523
E(CCSD(T))                                 ...  -1233.275227116

MULLIKEN ATOMIC CHARGES AND SPIN DENSITIES
------------------------------------------
   0 Lu:    0.000000    1.000000
Sum of atomic charges       :    0.0000000

LOEWDIN ATOMIC CHARGES AND SPIN DENSITIES
-----------------------------------------
   0 Lu:   -0.000000    1.000000

FINAL SINGLE POINT ENERGY     -1233.275227116136

DIPOLE MOMENT
-------------
                                X             Y             Z
Electronic contribution:      0.00000       0.00000       0.00000
Nuclear contribution   :      0.00000       0.00000       0.00000
                        -----------------------------------------
Total Dipole Moment    :      0.00000       0.00000       0.00000
                        -----------------------------------------
Magnitude (a.u.)       :      0.00000
Magnitude (Debye)      :      0.00000

Rotational constants in cm-1:     0.000000     0.000000     0.000000
Rotational constants in MHz :     0.000000     0.000000     0.000000

                             ****ORCA TERMINATED NORMALLY****
TOTAL RUN TIME: 0 days 0 hours 1 minutes 5 seconds 483 msec
