                         Program Version 4.2.0 -  RELEASE  -
|  1> # input to generate an atomic fitting density for Ta
|  2> # this file is use internally by ORCA
|  3> #
|  4> # atomic ground state (S=4): 1s2 2s2 2p6 3s2 3p6 4s2 3d10 4p6 5s2 4d10 5p6 6s2 4f14 5d3
|  5> #
|  6> ! RHF AllowRHF def2-SVP def2/J  NoMulliken NoLoewdin NoMayer NoPrintMOs
|  7>
|  8> %output print[p_atomdensfit] 2 end
|  9>
| 10> %scf
| 11>   guess hcore
| 12>   maxiter 1000
| 13>   maxdisk 500000
| 14>   SCFMode Conventional
| 15>   lshift 0.200000
| 16>   hftyp rohf
| 17>   rohf_case sahf
| 18>   rohf_numop   2
| 19>   rohf_norb[1] 5
| 20>   rohf_nel[1]  3
| 21> end
| 22>
| 23> %basis
| 24>   NewECP 73
| 25>     N_core 60
| 26>     lmax f
| 27>     s 3
| 28>       1      14.5464077000   1345.8806470000  2
| 29>       2       7.2732038000     36.7668062000  2
| 30>       3       2.0178811000    -12.0179609000  2
| 31>     p 3
| 32>       1       9.9355653000    378.4253015000  2
| 33>       2       4.9677824000     22.2930909000  2
| 34>       3       2.0178811000    -12.0179609000  2
| 35>     d 3
| 36>       1       6.3473769000    104.8839557000  2
| 37>       2       3.1736885000      8.7558481000  2
| 38>       3       2.0178811000    -12.0179609000  2
| 39>     f 1
| 40>       1       2.0178811000     12.0179609000  2
| 41>   end
| 42>   NewGTO 73
| 43>     s 4
| 44>      1      24.4736509440      2.2386323911
| 45>      2      18.7213725490     -8.1183993878
| 46>      3      11.5000000000     37.0432560568
| 47>      4      10.3500000000    -30.6331089410
| 48>     s 1
| 49>      1       3.8436180089      1.0000000000
| 50>     s 1
| 51>      1       1.0202266016      1.0000000000
| 52>     s 1
| 53>      1       0.4677478187      1.0000000000
| 54>     s 1
| 55>      1       0.1032318667      1.0000000000
| 56>     s 1
| 57>      1       0.0386744612      1.0000000000
| 58>     p 4
| 59>      1      17.0000000000     -0.0771704057
| 60>      2      12.0081865360      0.2448500499
| 61>      3       5.0278760583     -0.6757474915
| 62>      4       1.1937124184      1.2268252800
| 63>     p 1
| 64>      1       0.5788970705      1.0000000000
| 65>     p 1
| 66>      1       0.2722519880      1.0000000000
| 67>     p 1
| 68>      1       0.0650000000      1.0000000000
| 69>     d 3
| 70>      1       3.9738796278     -0.0943566000
| 71>      2       1.4528884813      0.3316520432
| 72>      3       0.6104290854      0.7677130412
| 73>     d 1
| 74>      1       0.2421627651      1.0000000000
| 75>     d 1
| 76>      1       0.0879093183      1.0000000000
| 77>   end
| 78>   NewAuxGTO 73
| 79>     S 1
| 80>      1 1310.72 1.0
| 81>     S 1
| 82>      1  655.36 1.0
| 83>     S 1
| 84>      1  327.68 1.0
| 85>     S 1
| 86>      1  163.84 1.0
| 87>     S 1
| 88>      1   81.82 1.0
| 89>     S 1
| 90>      1   40.96 1.0
| 91>     S 1
| 92>      1   20.48 1.0
| 93>     S 1
| 94>      1   10.24 1.0
| 95>     S 1
| 96>      1    5.12 1.0
| 97>     S 1
| 98>      1    2.56 1.0
| 99>     S 1
|100>      1    1.28 1.0
|101>     S 1
|102>      1    0.64 1.0
|103>     S 1
|104>      1    0.32 1.0
|105>     S 1
|106>      1    0.16 1.0
|107>     S 1
|108>      1    0.08 1.0
|109>     S 1
|110>      1    0.04 1.0
|111>     S 1
|112>      1    0.02 1.0
|113>     S 1
|114>      1    0.01 1.0
|115>   end
|116> end
|117>
|118> * xyz 0 4
|119> 73  0.0 0.0 0.0
|120> *
|121>
|122>
|123>                          ****END OF INPUT****

CARTESIAN COORDINATES (ANGSTROEM)
---------------------------------
  Ta     0.000000    0.000000    0.000000

 Total Charge           Charge          ....    0
 Multiplicity           Mult            ....    4
 Number of Electrons    NEL             ....   13
 Basis Dimension        Dim             ....   33

ORBITAL ENERGIES
----------------

  NO   OCC          E(Eh)            E(eV)
   0   2.0000      -3.136654       -85.3527
   1   2.0000      -1.712521       -46.6001
   2   2.0000      -1.712508       -46.5997
   3   2.0000      -1.712505       -46.5996
   4   2.0000      -0.249165        -6.7801
   5   0.6000      -0.312158        -8.4943
   6   0.6000      -0.312150        -8.4940
   7   0.6000      -0.312144        -8.4939
   8   0.6000      -0.312129        -8.4935
   9   0.6000      -0.312111        -8.4930
  10   0.0000      -0.063645        -1.7319
  11   0.0000      -0.063642        -1.7318
  12   0.0000      -0.063650        -1.7320
  13   0.0000       0.062738         1.7072
  14   0.0000       0.191742         5.2176

CleanUpVectors: The p-vectors have cracked symmetry
CleanUpVectors: The p-vectors have cracked symmetry
CleanUpVectors: The p-vectors have cracked symmetry
CleanUpVectors: The d-vectors have cracked symmetry at i=5
CleanUpVectors: The d-vectors have cracked symmetry at i=6
CleanUpVectors: The d-vectors have cracked symmetry at i=7
CleanUpVectors: The d-vectors have cracked symmetry at i=8
CleanUpVectors: The d-vectors have cracked symmetry at i=9
CleanUpVectors: The p-vectors have cracked symmetry
CleanUpVectors: The p-vectors have cracked symmetry
CleanUpVectors: The p-vectors have cracked symmetry
CleanUpVectors: The d-vectors have cracked symmetry at i=14
CleanUpVectors: The d-vectors have cracked symmetry at i=15
CleanUpVectors: The d-vectors have cracked symmetry at i=16
CleanUpVectors: The d-vectors have cracked symmetry at i=17
CleanUpVectors: The d-vectors have cracked symmetry at i=18
CleanUpVectors: The p-vectors have cracked symmetry
CleanUpVectors: The p-vectors have cracked symmetry
CleanUpVectors: The p-vectors have cracked symmetry
CleanUpVectors: The d-vectors have cracked symmetry at i=22
CleanUpVectors: The d-vectors have cracked symmetry at i=23
CleanUpVectors: The d-vectors have cracked symmetry at i=24
CleanUpVectors: The d-vectors have cracked symmetry at i=25
CleanUpVectors: The d-vectors have cracked symmetry at i=26
CleanUpVectors: The p-vectors have cracked symmetry
CleanUpVectors: The p-vectors have cracked symmetry
CleanUpVectors: The p-vectors have cracked symmetry
--------------------------
ATOM BASIS FOR ELEMENT Ta
--------------------------
 NewGTO Ta
 S 9
    1         24.473650944000         0.203765574435
    2         18.721372549000        -0.738955766619
    3         11.500000000000         3.371764108903
    4         10.350000000000        -2.788297473446
    5          3.843618008900        -0.612709936908
    6          1.020226601600         0.823881413250
    7          0.467747818700         0.509018762913
    8          0.103231866700         0.017505357700
    9          0.038674461200        -0.003910391632
 P 21
    1         17.000000000000        -0.020550244603
    2         12.008186536000         0.065202824463
    3          5.027876058300        -0.179949504144
    4          1.193712418400         0.326699845112
    5         17.000000000000        -0.022937935154
    6         12.008186536000         0.072778606204
    7          5.027876058300        -0.200857466017
    8          1.193712418400         0.364658426536
    9         17.000000000000        -0.000210749869
   10         12.008186536000         0.000668677525
   11          5.027876058300        -0.001845444428
   12          1.193712418400         0.003350419951
   13          0.578897070500         0.329787234599
   14          0.578897070500         0.368104533442
   15          0.578897070500         0.003382082199
   16          0.272251988000         0.113021557225
   17          0.272251988000         0.126153298935
   18          0.272251988000         0.001159075175
   19          0.065000000000         0.005877365971
   20          0.065000000000         0.006560245005
   21          0.065000000000         0.000060274422
 S 9
    1         24.473650944000         0.065660138340
    2         18.721372549000        -0.238116462990
    3         11.500000000000         1.086496079896
    4         10.350000000000        -0.898483457512
    5          3.843618008900        -0.213641900263
    6          1.020226601600         0.363092208297
    7          0.467747818700         0.362675927859
    8          0.103231866700        -0.643999720861
    9          0.038674461200        -0.568238676071
 D 21
    1         24.473650944000         0.000000395126
    2         18.721372549000        -0.000001873199
    3         11.500000000000         0.000013914333
    4         10.350000000000        -0.000012785031
    5          3.843618008900        -0.000008364290
    6          1.020226601600         0.000065887491
    7          0.467747818700         0.000061459734
    8          0.103231866700        -0.001438711631
    9          0.038674461200         0.001295943847
   10          3.973879627800         0.022208872711
   11          1.452888481300        -0.078061502976
   12          0.610429085400        -0.180697918433
   13          3.973879627800         0.020593016233
   14          1.452888481300        -0.072381962779
   15          0.610429085400        -0.167550835017
   16          3.973879627800        -0.000673752076
   17          1.452888481300         0.002368157104
   18          0.610429085400         0.005481844994
   19          3.973879627800         0.042981884664
   20          1.452888481300        -0.151076128955
   21          0.610429085400        -0.349713251557
 D 21
    1          3.973879627800         0.000831941518
    2          1.452888481300        -0.002924173872
    3          0.610429085400        -0.006768920809
    4          3.973879627800        -0.000216587883
    5          1.452888481300         0.000761280229
    6          0.610429085400         0.001762222703
    7          3.973879627800         0.035094146071
    8          1.452888481300        -0.123351681268
    9          0.610429085400        -0.285536291138
   10          3.973879627800        -0.001200025939
   11          1.452888481300         0.004217946116
   12          0.610429085400         0.009763763880
   13          3.973879627800         0.039158444410
   14          1.452888481300        -0.137637198640
   15          0.610429085400        -0.318604617451
   16          0.242162765100        -0.006854623292
   17          0.242162765100         0.001784534511
   18          0.242162765100        -0.289151515740
   19          0.242162765100         0.009887384591
   20          0.242162765100        -0.322638525879
   21          0.087909318300        -0.003188442508
 P 21
    1         17.000000000000        -0.005426490926
    2         12.008186536000         0.017217436684
    3          5.027876058300        -0.047517407711
    4          1.193712418400         0.086268255159
    5         17.000000000000         0.004859987946
    6         12.008186536000        -0.015420008232
    7          5.027876058300         0.042556788883
    8          1.193712418400        -0.077262209767
    9         17.000000000000         0.000178535091
   10         12.008186536000        -0.000566464898
   11          5.027876058300         0.001563353710
   12          1.193712418400        -0.002838281870
   13          0.578897070500         0.126356720333
   14          0.578897070500        -0.113165606674
   15          0.578897070500        -0.004157218524
   16          0.272251988000         0.055954046873
   17          0.272251988000        -0.050112678167
   18          0.272251988000        -0.001840924642
   19          0.065000000000        -0.787045429387
   20          0.065000000000         0.704881174991
   21          0.065000000000         0.025894308035
 D 21
    1          3.973879627800         0.000331657446
    2          1.452888481300        -0.001165735831
    3          0.610429085400        -0.002698462496
    4          3.973879627800        -0.000086343756
    5          1.452888481300         0.000303487866
    6          0.610429085400         0.000702518188
    7          3.973879627800         0.013990446177
    8          1.452888481300        -0.049174727150
    9          0.610429085400        -0.113830383696
   10          3.973879627800        -0.000478395967
   11          1.452888481300         0.001681503996
   12          0.610429085400         0.003892370251
   13          3.973879627800         0.015610697888
   14          1.452888481300        -0.054869716058
   15          0.610429085400        -0.127013228016
   16          0.242162765100        -0.009251664249
   17          0.242162765100         0.002408579855
   18          0.242162765100        -0.390266862267
   19          0.242162765100         0.013344970608
   20          0.242162765100        -0.435464173578
   21          0.087909318300         0.019252895019
 P 21
    1         17.000000000000        -0.000301562392
    2         12.008186536000         0.000956811956
    3          5.027876058300        -0.002640649978
    4          1.193712418400         0.004794122345
    5         17.000000000000         0.000472581538
    6         12.008186536000        -0.001499429892
    7          5.027876058300         0.004138189838
    8          1.193712418400        -0.007512918614
    9         17.000000000000        -0.022030210023
   10         12.008186536000         0.069898531368
   11          5.027876058300        -0.192908914051
   12          1.193712418400         0.350227763287
   13          0.578897070500         0.017241188296
   14          0.578897070500        -0.027018844152
   15          0.578897070500         1.259530395567
   16          0.272251988000        -0.028972950831
   17          0.272251988000         0.045403810322
   18          0.272251988000        -2.116577558009
   19          0.065000000000         0.010333772048
   20          0.065000000000        -0.016194160847
   21          0.065000000000         0.754918963319
 D 21
    1          3.973879627800         0.001820102042
    2          1.452888481300        -0.006397438663
    3          0.610429085400        -0.014808885374
    4          3.973879627800        -0.000473845627
    5          1.452888481300         0.001665510100
    6          0.610429085400         0.003855347345
    7          3.973879627800         0.076778130476
    8          1.452888481300        -0.269865847702
    9          0.610429085400        -0.624689444565
   10          3.973879627800        -0.002625387851
   11          1.452888481300         0.009227920938
   12          0.610429085400         0.021360927493
   13          3.973879627800         0.085669906246
   14          1.452888481300        -0.301119364699
   15          0.610429085400        -0.697035546674
   16          0.242162765100         0.025178881965
   17          0.242162765100        -0.006555073746
   18          0.242162765100         1.062131375370
   19          0.242162765100        -0.036319024588
   20          0.242162765100         1.185138199968
   21          0.087909318300        -0.010393676381
 P 21
    1         17.000000000000        -0.002693190694
    2         12.008186536000         0.008545087588
    3          5.027876058300        -0.023583093018
    4          1.193712418400         0.042815304621
    5         17.000000000000         0.004220537361
    6         12.008186536000        -0.013391128037
    7          5.027876058300         0.036957399775
    8          1.193712418400        -0.067096471534
    9         17.000000000000        -0.196747805983
   10         12.008186536000         0.624251093093
   11          5.027876058300        -1.722834487458
   12          1.193712418400         3.127820567676
   13          0.578897070500        -0.053587142497
   14          0.578897070500         0.083977171550
   15          0.578897070500        -3.914744224027
   16          0.272251988000         0.026777812250
   17          0.272251988000        -0.041963889625
   18          0.272251988000         1.956220857343
   19          0.065000000000        -0.004903947325
   20          0.065000000000         0.007685045453
   21          0.065000000000        -0.358251971859
 end
  // -----------------------------------------------
  // The basis set
  // -----------------------------------------------
  BAS[ATNO] = new BFNGauss[NSH];
  // Basis function   1 L = s
  InitBFNGauss(BAS[ATNO][  0]);
  BAS[ATNO][  0].l  = 0;
  BAS[ATNO][  0].ng = 9;
  BAS[ATNO][  0].a[  0] =        24.473650944000;     BAS[ATNO][  0].d[  0] =         0.203765574435;
  BAS[ATNO][  0].a[  1] =        18.721372549000;     BAS[ATNO][  0].d[  1] =        -0.738955766619;
  BAS[ATNO][  0].a[  2] =        11.500000000000;     BAS[ATNO][  0].d[  2] =         3.371764108903;
  BAS[ATNO][  0].a[  3] =        10.350000000000;     BAS[ATNO][  0].d[  3] =        -2.788297473446;
  BAS[ATNO][  0].a[  4] =         3.843618008900;     BAS[ATNO][  0].d[  4] =        -0.612709936908;
  BAS[ATNO][  0].a[  5] =         1.020226601600;     BAS[ATNO][  0].d[  5] =         0.823881413250;
  BAS[ATNO][  0].a[  6] =         0.467747818700;     BAS[ATNO][  0].d[  6] =         0.509018762913;
  BAS[ATNO][  0].a[  7] =         0.103231866700;     BAS[ATNO][  0].d[  7] =         0.017505357700;
  BAS[ATNO][  0].a[  8] =         0.038674461200;     BAS[ATNO][  0].d[  8] =        -0.003910391632;

FINAL SINGLE POINT ENERGY       -56.270420143998

DIPOLE MOMENT
-------------
                                X             Y             Z
Electronic contribution:      0.00000       0.00000      -0.00000
Nuclear contribution   :      0.00000       0.00000       0.00000
                        -----------------------------------------
Total Dipole Moment    :      0.00000       0.00000      -0.00000
                        -----------------------------------------
Magnitude (a.u.)       :      0.00000
Magnitude (Debye)      :      0.00000

Rotational constants in cm-1:     0.000000     0.000000     0.000000
Rotational constants in MHz :     0.000000     0.000000     0.000000

                             ****ORCA TERMINATED NORMALLY****
TOTAL RUN TIME: 0 days 0 hours 0 minutes 1 seconds 157 msec
