                         Program Version 4.2.0 -  RELEASE  -
|  1> #
|  2> # 74_W CCSD(T)/Def2-TZVP
|  3> #
|  4> ! CCSD(T) Def2-TZVP tightscf
|  5>
|  6> *xyz 0 5
|  7>  W 0.0 0.0 0.0
|  8> *
|  9>
| 10> %maxcore 5000
| 11>
| 12> %pal
| 13> nprocs 24
| 14> end
| 15>
| 16> %method
| 17> NewNCore W 60 end
| 18> end
| 19>
| 20>
| 21>                          ****END OF INPUT****

CARTESIAN COORDINATES (ANGSTROEM)
---------------------------------
  W      0.000000    0.000000    0.000000

 Total Charge           Charge          ....    0
 Multiplicity           Mult            ....    5
 Number of Electrons    NEL             ....   14
 Basis Dimension        Dim             ....   40

ORBITAL ENERGIES
----------------
                 SPIN UP ORBITALS
  NO   OCC          E(Eh)            E(eV)
   0   1.0000      -3.475395       -94.5703
   1   1.0000      -2.004026       -54.5323
   2   1.0000      -2.004021       -54.5322
   3   1.0000      -1.974567       -53.7307
   4   1.0000      -0.378480       -10.2990
   5   1.0000      -0.378475       -10.2988
   6   1.0000      -0.359961        -9.7950
   7   1.0000      -0.359961        -9.7950
   8   1.0000      -0.304710        -8.2916
   9   0.0000       0.051941         1.4134
  10   0.0000       0.051942         1.4134
  11   0.0000       0.057965         1.5773
  12   0.0000       0.069814         1.8997
  13   0.0000       0.187480         5.1016

                 SPIN DOWN ORBITALS
  NO   OCC          E(Eh)            E(eV)
   0   1.0000      -3.322812       -90.4183
   1   1.0000      -1.796245       -48.8783
   2   1.0000      -1.750768       -47.6408
   3   1.0000      -1.750761       -47.6406
   4   1.0000      -0.228242        -6.2108
   5   0.0000       0.066037         1.7969
   6   0.0000       0.098493         2.6801
   7   0.0000       0.098495         2.6802
   8   0.0000       0.100068         2.7230
   9   0.0000       0.134499         3.6599

E(0)                                       ...    -66.320487891
E(0)                                       ...    -66.320487891
E(CORR)                                    ...     -0.250984152
E(TOT)                                     ...    -66.571472043
E(CCSD(T))                                 ...    -66.579465413

MULLIKEN ATOMIC CHARGES AND SPIN DENSITIES
------------------------------------------
   0 W :   -0.000000    4.000000
Sum of atomic charges       :   -0.0000000

LOEWDIN ATOMIC CHARGES AND SPIN DENSITIES
-----------------------------------------
   0 W :   -0.000000    4.000000

FINAL SINGLE POINT ENERGY       -66.579465412548

DIPOLE MOMENT
-------------
                                X             Y             Z
Electronic contribution:     -0.00000      -0.00000       0.00000
Nuclear contribution   :      0.00000       0.00000       0.00000
                        -----------------------------------------
Total Dipole Moment    :     -0.00000      -0.00000       0.00000
                        -----------------------------------------
Magnitude (a.u.)       :      0.00000
Magnitude (Debye)      :      0.00000

Rotational constants in cm-1:     0.000000     0.000000     0.000000
Rotational constants in MHz :     0.000000     0.000000     0.000000

                             ****ORCA TERMINATED NORMALLY****
TOTAL RUN TIME: 0 days 0 hours 0 minutes 29 seconds 859 msec
