                         Program Version 4.2.0 -  RELEASE  -
|  1> # input to generate an atomic fitting density for W
|  2> # this file is use internally by ORCA
|  3> #
|  4> # atomic ground state (S=5): 1s2 2s2 2p6 3s2 3p6 4s2 3d10 4p6 5s2 4d10 5p6 6s2 4f14 5d4
|  5> #
|  6> ! RHF AllowRHF def2-SVP def2/J  NoMulliken NoLoewdin NoMayer NoPrintMOs
|  7>
|  8> %output print[p_atomdensfit] 2 end
|  9>
| 10> %scf
| 11>   guess hcore
| 12>   maxiter 1000
| 13>   maxdisk 500000
| 14>   SCFMode Conventional
| 15>   lshift 0.500000
| 16>   hftyp rohf
| 17>   rohf_case sahf
| 18>   rohf_numop   2
| 19>   rohf_norb[1] 5
| 20>   rohf_nel[1]  4
| 21> end
| 22>
| 23> %basis
| 24>   NewECP 74
| 25>     N_core 60
| 26>     lmax f
| 27>     s 3
| 28>       1      14.3228564000   1192.3958823000  2
| 29>       2       7.1614281000     32.5229332000  2
| 30>       3       2.2588885000    -14.1525795000  2
| 31>     p 3
| 32>       1      10.0216411000    359.0319671000  2
| 33>       2       5.0108204000     24.0303802000  2
| 34>       3       2.2588885000    -14.1525795000  2
| 35>     d 3
| 36>       1       6.5979974000    108.3013490000  2
| 37>       2       3.2989987000     10.9825283000  2
| 38>       3       2.2588885000    -14.1525795000  2
| 39>     f 1
| 40>       1       2.2588885000     14.1525795000  2
| 41>   end
| 42>   NewGTO 74
| 43>     s 3
| 44>      1      30.0000000000      1.1087519451
| 45>      2      27.0000000000     -1.6054504407
| 46>      3      13.0780456840      1.4681670492
| 47>     s 1
| 48>      1       4.8100449717      1.0000000000
| 49>     s 1
| 50>      1       0.9849780426      1.0000000000
| 51>     s 1
| 52>      1       0.4491048534      1.0000000000
| 53>     s 1
| 54>      1       0.1144835292      1.0000000000
| 55>     s 1
| 56>      1       0.0417204220      1.0000000000
| 57>     p 4
| 58>      1      17.0000000000     -0.0915365247
| 59>      2      12.4319734320      0.2639678450
| 60>      3       5.1586217658     -0.7116151539
| 61>      4       1.2801454812      1.2480085239
| 62>     p 1
| 63>      1       0.6285679090      1.0000000000
| 64>     p 1
| 65>      1       0.2938042355      1.0000000000
| 66>     p 1
| 67>      1       0.0650000000      1.0000000000
| 68>     d 4
| 69>      1       7.4064737315      0.0625854177
| 70>      2       5.9026268603     -0.1271042649
| 71>      3       1.2984756750      0.3967305737
| 72>      4       0.5715350854      0.6857074962
| 73>     d 1
| 74>      1       0.2384552661      1.0000000000
| 75>     d 1
| 76>      1       0.0911442673      1.0000000000
| 77>   end
| 78>   NewAuxGTO 74
| 79>     S 1
| 80>      1 1310.72 1.0
| 81>     S 1
| 82>      1  655.36 1.0
| 83>     S 1
| 84>      1  327.68 1.0
| 85>     S 1
| 86>      1  163.84 1.0
| 87>     S 1
| 88>      1   81.82 1.0
| 89>     S 1
| 90>      1   40.96 1.0
| 91>     S 1
| 92>      1   20.48 1.0
| 93>     S 1
| 94>      1   10.24 1.0
| 95>     S 1
| 96>      1    5.12 1.0
| 97>     S 1
| 98>      1    2.56 1.0
| 99>     S 1
|100>      1    1.28 1.0
|101>     S 1
|102>      1    0.64 1.0
|103>     S 1
|104>      1    0.32 1.0
|105>     S 1
|106>      1    0.16 1.0
|107>     S 1
|108>      1    0.08 1.0
|109>     S 1
|110>      1    0.04 1.0
|111>     S 1
|112>      1    0.02 1.0
|113>     S 1
|114>      1    0.01 1.0
|115>   end
|116> end
|117>
|118> * xyz 0 5
|119> 74  0.0 0.0 0.0
|120> *
|121>
|122>
|123>                          ****END OF INPUT****

CARTESIAN COORDINATES (ANGSTROEM)
---------------------------------
  W      0.000000    0.000000    0.000000

 Total Charge           Charge          ....    0
 Multiplicity           Mult            ....    5
 Number of Electrons    NEL             ....   14
 Basis Dimension        Dim             ....   33

ORBITAL ENERGIES
----------------

  NO   OCC          E(Eh)            E(eV)
   0   2.0000      -3.673267       -99.9547
   1   2.0000      -2.141873       -58.2833
   2   2.0000      -2.130394       -57.9710
   3   2.0000      -2.126924       -57.8765
   4   2.0000      -0.505354       -13.7514
   5   0.8000      -0.554413       -15.0863
   6   0.8000      -0.479819       -13.0565
   7   0.8000      -0.237660        -6.4671
   8   0.8000      -0.222365        -6.0508
   9   0.8000      -0.217784        -5.9262
  10   0.0000      -0.199763        -5.4358
  11   0.0000      -0.193179        -5.2567
  12   0.0000      -0.172795        -4.7020
  13   0.0000       0.078894         2.1468
  14   0.0000       0.164488         4.4760

CleanUpVectors: The p-vectors have cracked symmetry
CleanUpVectors: The p-vectors have cracked symmetry
CleanUpVectors: The p-vectors have cracked symmetry
CleanUpVectors: The d-vectors have cracked symmetry at i=4
CleanUpVectors: The d-vectors have cracked symmetry at i=5
CleanUpVectors: The p-vectors have cracked symmetry
CleanUpVectors: The p-vectors have cracked symmetry
CleanUpVectors: The p-vectors have cracked symmetry
CleanUpVectors: The d-vectors have cracked symmetry at i=10
CleanUpVectors: The d-vectors have cracked symmetry at i=11
CleanUpVectors: The d-vectors have cracked symmetry at i=12
CleanUpVectors: The d-vectors have cracked symmetry at i=14
CleanUpVectors: The d-vectors have cracked symmetry at i=15
CleanUpVectors: The d-vectors have cracked symmetry at i=16
CleanUpVectors: The d-vectors have cracked symmetry at i=17
CleanUpVectors: The d-vectors have cracked symmetry at i=18
CleanUpVectors: The p-vectors have cracked symmetry
CleanUpVectors: The p-vectors have cracked symmetry
CleanUpVectors: The p-vectors have cracked symmetry
CleanUpVectors: The d-vectors have cracked symmetry at i=22
CleanUpVectors: The d-vectors have cracked symmetry at i=23
CleanUpVectors: The d-vectors have cracked symmetry at i=24
CleanUpVectors: The d-vectors have cracked symmetry at i=25
CleanUpVectors: The d-vectors have cracked symmetry at i=26
CleanUpVectors: The p-vectors have cracked symmetry
CleanUpVectors: The p-vectors have cracked symmetry
CleanUpVectors: The p-vectors have cracked symmetry
--------------------------
ATOM BASIS FOR ELEMENT W
--------------------------
 NewGTO W
 S 8
    1         30.000000000000        -0.328317851117
    2         27.000000000000         0.475397622610
    3         13.078045684000        -0.434745979751
    4          4.810044971700         0.830494247173
    5          0.984978042600        -0.946624128193
    6          0.449104853400        -0.367939295686
    7          0.114483529200        -0.003199456531
    8          0.041720422000        -0.000465175331
 P 21
    1         17.000000000000        -0.018583006826
    2         12.431973432000         0.053588622482
    3          5.158621765800        -0.144466367997
    4          1.280145481200         0.253360622928
    5         17.000000000000        -0.031236439153
    6         12.431973432000         0.090077873894
    7          5.158621765800        -0.242835562391
    8          1.280145481200         0.425877456529
    9         17.000000000000        -0.006733580200
   10         12.431973432000         0.019417917168
   11          5.158621765800        -0.052347603603
   12          1.280145481200         0.091805599058
   13          0.628567909000         0.264112438916
   14          0.628567909000         0.443950336179
   15          0.628567909000         0.095701535595
   16          0.293804235500         0.064201576292
   17          0.293804235500         0.107917338142
   18          0.293804235500         0.023263536788
   19          0.065000000000         0.000657621338
   20          0.065000000000         0.001105405013
   21          0.065000000000         0.000238290071
 D 21
    1         30.000000000000        -0.000032728003
    2         27.000000000000         0.000052654987
    3         13.078045684000        -0.000099412041
    4          4.810044971700         0.000543660639
    5          0.984978042600        -0.004995732226
    6          0.449104853400        -0.000135000532
    7          0.114483529200         0.048459755018
    8          0.041720422000        -0.004219799434
    9          7.406473731500        -0.025681224271
   10          5.902626860300         0.052155809654
   11          1.298475675000        -0.162793941668
   12          0.571535085400        -0.281372381001
   13          7.406473731500         0.024108978647
   14          5.902626860300        -0.048962747569
   15          1.298475675000         0.152827436187
   16          0.571535085400         0.264146313809
   17          7.406473731500        -0.011799630435
   18          5.902626860300         0.023963782741
   19          1.298475675000        -0.074798161041
   20          0.571535085400        -0.129280834722
   21          7.406473731500        -0.022652515770
 S 8
    1         30.000000000000        -2.130337816720
    2         27.000000000000         3.084686166106
    3         13.078045684000        -2.820912107524
    4          4.810044971700         3.110508429449
    5          0.984978042600        -1.779243103853
    6          0.449104853400         1.231913870710
    7          0.114483529200        -0.420412615435
    8          0.041720422000         0.156616542295
 S 8
    1         30.000000000000        -2.059115027452
    2         27.000000000000         2.981557004599
    3         13.078045684000        -2.726601605687
    4          4.810044971700         1.219446435291
    5          0.984978042600        -0.571864030922
    6          0.449104853400         0.390157240248
    7          0.114483529200        -0.132854708793
    8          0.041720422000         0.049568019209
 P 21
    1         17.000000000000        -0.005638107908
    2         12.431973432000         0.016258856225
    3          5.158621765800        -0.043831279810
    4          1.280145481200         0.076869935269
    5         17.000000000000        -0.009477175371
    6         12.431973432000         0.027329741518
    7          5.158621765800        -0.073676618514
    8          1.280145481200         0.129211762023
    9         17.000000000000        -0.002042976798
   10         12.431973432000         0.005891420768
   11          5.158621765800        -0.015882329519
   12          1.280145481200         0.027853935530
   13          0.628567909000         0.173187353741
   14          0.628567909000         0.291113073775
   15          0.628567909000         0.062754695563
   16          0.293804235500        -0.135152008923
   17          0.293804235500        -0.227178924411
   18          0.293804235500        -0.048972531721
   19          0.065000000000        -0.463723821327
   20          0.065000000000        -0.779479933686
   21          0.065000000000        -0.168031017301
 D 21
    1          7.406473731500         0.006460207875
    2          5.902626860300        -0.013119988701
    3          1.298475675000         0.040951424000
    4          0.571535085400         0.070780273259
    5          7.406473731500         0.008016325069
    6          5.902626860300        -0.016280295675
    7          1.298475675000         0.050815690946
    8          0.571535085400         0.087829631786
    9          7.406473731500        -0.017045285075
   10          5.902626860300         0.034617144202
   11          1.298475675000        -0.108050500824
   12          0.571535085400        -0.186754042402
   13          7.406473731500         0.009602401885
   14          5.902626860300        -0.019501447425
   15          1.298475675000         0.060869872707
   16          0.571535085400         0.105207238299
   17          7.406473731500        -0.030290443124
   18          5.902626860300         0.061516638352
   19          1.298475675000        -0.192011898614
   20          0.571535085400        -0.331872577934
   21          0.238455266100         0.063407732269
 D 21
    1          7.406473731500         0.003460417464
    2          5.902626860300        -0.007027736399
    3          1.298475675000         0.021935675375
    4          0.571535085400         0.037913531338
    5          7.406473731500         0.004293953353
    6          5.902626860300        -0.008720558311
    7          1.298475675000         0.027219480829
    8          0.571535085400         0.047046039011
    9          7.406473731500        -0.009130325726
   10          5.902626860300         0.018542711423
   11          1.298475675000        -0.057877369783
   12          0.571535085400        -0.100035008521
   13          7.406473731500         0.005143537147
   14          5.902626860300        -0.010445971794
   15          1.298475675000         0.032605014363
   16          0.571535085400         0.056354373080
   17          7.406473731500        -0.016225109224
   18          5.902626860300         0.032951455094
   19          1.298475675000        -0.102851384994
   20          0.571535085400        -0.177767911928
   21          0.238455266100         0.086346912363
 P 21
    1         17.000000000000        -0.020554939722
    2         12.431973432000         0.059275170871
    3          5.158621765800        -0.159796394299
    4          1.280145481200         0.280245946254
    5         17.000000000000         0.012863474403
    6         12.431973432000        -0.037094958853
    7          5.158621765800         0.100002084924
    8          1.280145481200        -0.175380546225
    9         17.000000000000        -0.002945914315
   10         12.431973432000         0.008495260836
   11          5.158621765800        -0.022901866502
   12          1.280145481200         0.040164581166
   13          0.628567909000         1.005247006319
   14          0.628567909000        -0.629093021382
   15          0.628567909000         0.144071040157
   16          0.293804235500        -1.717068257958
   17          0.293804235500         1.074557448596
   18          0.293804235500        -0.246088581602
   19          0.065000000000         0.698327941831
   20          0.065000000000        -0.437020187159
   21          0.065000000000         0.100083693180
 D 21
    1          7.406473731500         0.012716988727
    2          5.902626860300        -0.025826838956
    3          1.298475675000         0.080613318867
    4          0.571535085400         0.139331729655
    5          7.406473731500         0.015780222169
    6          5.902626860300        -0.032047937243
    7          1.298475675000         0.100031234502
    8          0.571535085400         0.172893575386
    9          7.406473731500        -0.033553827111
   10          5.902626860300         0.068144220911
   11          1.298475675000        -0.212698573707
   12          0.571535085400        -0.367627342309
   13          7.406473731500         0.018902431452
   14          5.902626860300        -0.038388809131
   15          1.298475675000         0.119822999506
   16          0.571535085400         0.207101580834
   17          7.406473731500        -0.059627063275
   18          5.902626860300         0.121096164637
   19          1.298475675000        -0.377977488852
   20          0.571535085400        -0.653294741273
   21          0.238455266100        -0.291887219619
 P 21
    1         17.000000000000        -0.195893560224
    2         12.431973432000         0.564906752920
    3          5.158621765800        -1.522898389075
    4          1.280145481200         2.670811828813
    5         17.000000000000         0.122592030511
    6         12.431973432000        -0.353523953573
    7          5.158621765800         0.953044120314
    8          1.280145481200        -1.671419136152
    9         17.000000000000        -0.028075277826
   10         12.431973432000         0.080961895920
   11          5.158621765800        -0.218260341615
   12          1.280145481200         0.382778198682
   13          0.628567909000        -3.221046033631
   14          0.628567909000         2.015760871267
   15          0.628567909000        -0.461637239031
   16          0.293804235500         1.539927033660
   17          0.293804235500        -0.963700806088
   18          0.293804235500         0.220700870682
   19          0.065000000000        -0.263865715683
   20          0.065000000000         0.165129644032
   21          0.065000000000        -0.037816982182
 end
  // -----------------------------------------------
  // The basis set
  // -----------------------------------------------
  BAS[ATNO] = new BFNGauss[NSH];
  // Basis function   1 L = s
  InitBFNGauss(BAS[ATNO][  0]);
  BAS[ATNO][  0].l  = 0;
  BAS[ATNO][  0].ng = 8;
  BAS[ATNO][  0].a[  0] =        30.000000000000;     BAS[ATNO][  0].d[  0] =         0.328317851117;
  BAS[ATNO][  0].a[  1] =        27.000000000000;     BAS[ATNO][  0].d[  1] =        -0.475397622610;
  BAS[ATNO][  0].a[  2] =        13.078045684000;     BAS[ATNO][  0].d[  2] =         0.434745979751;
  BAS[ATNO][  0].a[  3] =         4.810044971700;     BAS[ATNO][  0].d[  3] =        -0.830494247173;
  BAS[ATNO][  0].a[  4] =         0.984978042600;     BAS[ATNO][  0].d[  4] =         0.946624128193;
  BAS[ATNO][  0].a[  5] =         0.449104853400;     BAS[ATNO][  0].d[  5] =         0.367939295686;
  BAS[ATNO][  0].a[  6] =         0.114483529200;     BAS[ATNO][  0].d[  6] =         0.003199456531;
  BAS[ATNO][  0].a[  7] =         0.041720422000;     BAS[ATNO][  0].d[  7] =         0.000465175331;

FINAL SINGLE POINT ENERGY       -65.902573084514

DIPOLE MOMENT
-------------
                                X             Y             Z
Electronic contribution:      0.00000      -0.00000       0.00000
Nuclear contribution   :      0.00000       0.00000       0.00000
                        -----------------------------------------
Total Dipole Moment    :      0.00000      -0.00000       0.00000
                        -----------------------------------------
Magnitude (a.u.)       :      0.00000
Magnitude (Debye)      :      0.00000

Rotational constants in cm-1:     0.000000     0.000000     0.000000
Rotational constants in MHz :     0.000000     0.000000     0.000000

                             ****ORCA TERMINATED NORMALLY****
TOTAL RUN TIME: 0 days 0 hours 0 minutes 1 seconds 60 msec
