                         Program Version 4.2.0 -  RELEASE  -
|  1> #
|  2> # 75_Re CCSD(T)/Def2-TZVP
|  3> #
|  4> ! CCSD(T) Def2-TZVP tightscf
|  5>
|  6> *xyz 0 6
|  7>  Re 0.0 0.0 0.0
|  8> *
|  9>
| 10> %maxcore 5000
| 11>
| 12> %pal
| 13> nprocs 24
| 14> end
| 15>
| 16> %method
| 17> NewNCore Re 60 end
| 18> end
| 19>
| 20>
| 21>                          ****END OF INPUT****

CARTESIAN COORDINATES (ANGSTROEM)
---------------------------------
  Re     0.000000    0.000000    0.000000

 Total Charge           Charge          ....    0
 Multiplicity           Mult            ....    6
 Number of Electrons    NEL             ....   15
 Basis Dimension        Dim             ....   40

ORBITAL ENERGIES
----------------
                 SPIN UP ORBITALS
  NO   OCC          E(Eh)            E(eV)
   0   1.0000      -3.667483       -99.7973
   1   1.0000      -2.138388       -58.1885
   2   1.0000      -2.093085       -56.9557
   3   1.0000      -2.092332       -56.9352
   4   1.0000      -0.368264       -10.0210
   5   1.0000      -0.359661        -9.7869
   6   1.0000      -0.359388        -9.7794
   7   1.0000      -0.341550        -9.2941
   8   1.0000      -0.311651        -8.4805
   9   1.0000      -0.287195        -7.8150
  10   0.0000       0.056980         1.5505
  11   0.0000       0.070756         1.9254
  12   0.0000       0.070940         1.9304
  13   0.0000       0.208947         5.6857
  14   0.0000       0.345968         9.4143

                 SPIN DOWN ORBITALS
  NO   OCC          E(Eh)            E(eV)
   0   1.0000      -3.499399       -95.2235
   1   1.0000      -1.874743       -51.0144
   2   1.0000      -1.874280       -51.0018
   3   1.0000      -1.848320       -50.2954
   4   1.0000      -0.207440        -5.6447
   5   0.0000       0.023746         0.6462
   6   0.0000       0.143315         3.8998
   7   0.0000       0.145002         3.9457
   8   0.0000       0.145069         3.9475
   9   0.0000       0.176191         4.7944

E(0)                                       ...    -77.466439257
E(0)                                       ...    -77.466439257
E(CORR)                                    ...     -0.261182492
E(TOT)                                     ...    -77.727621749
E(CCSD(T))                                 ...    -77.733811012

MULLIKEN ATOMIC CHARGES AND SPIN DENSITIES
------------------------------------------
   0 Re:    0.000000    5.000000
Sum of atomic charges       :    0.0000000

LOEWDIN ATOMIC CHARGES AND SPIN DENSITIES
-----------------------------------------
   0 Re:   -0.000000    5.000000

FINAL SINGLE POINT ENERGY       -77.733811011620

DIPOLE MOMENT
-------------
                                X             Y             Z
Electronic contribution:     -0.00000      -0.00000       0.00000
Nuclear contribution   :      0.00000       0.00000       0.00000
                        -----------------------------------------
Total Dipole Moment    :     -0.00000      -0.00000       0.00000
                        -----------------------------------------
Magnitude (a.u.)       :      0.00000
Magnitude (Debye)      :      0.00000

Rotational constants in cm-1:     0.000000     0.000000     0.000000
Rotational constants in MHz :     0.000000     0.000000     0.000000

                             ****ORCA TERMINATED NORMALLY****
TOTAL RUN TIME: 0 days 0 hours 0 minutes 14 seconds 560 msec
