                         Program Version 4.2.0 -  RELEASE  -
|  1> # input to generate an atomic fitting density for Re
|  2> # this file is use internally by ORCA
|  3> #
|  4> # atomic ground state (S=6): 1s2 2s2 2p6 3s2 3p6 4s2 3d10 4p6 5s2 4d10 5p6 6s2 4f14 5d5
|  5> #
|  6> ! RHF AllowRHF def2-SVP def2/J  NoMulliken NoLoewdin NoMayer NoPrintMOs
|  7>
|  8> %output print[p_atomdensfit] 2 end
|  9>
| 10> %scf
| 11>   guess hcore
| 12>   maxiter 1000
| 13>   maxdisk 500000
| 14>   SCFMode Conventional
| 15>   lshift 0.500000
| 16>   hftyp rohf
| 17>   rohf_case sahf
| 18>   rohf_numop   2
| 19>   rohf_norb[1] 5
| 20>   rohf_nel[1]  5
| 21> end
| 22>
| 23> %basis
| 24>   NewECP 75
| 25>     N_core 60
| 26>     lmax f
| 27>     s 3
| 28>       1      14.0993051000   1038.9515723000  2
| 29>       2       7.0496525000     29.5617383000  2
| 30>       3       2.5086506000    -16.4498523000  2
| 31>     p 3
| 32>       1      10.1077169000    339.5435096000  2
| 33>       2       5.0538583000     24.9136965000  2
| 34>       3       2.5086506000    -16.4498523000  2
| 35>     d 3
| 36>       1       6.8486179000    111.6996527000  2
| 37>       2       3.4243090000     12.6243293000  2
| 38>       3       2.5086506000    -16.4498523000  2
| 39>     f 1
| 40>       1       2.5086506000     16.4498523000  2
| 41>   end
| 42>   NewGTO 75
| 43>     s 3
| 44>      1      30.0000000000      0.9973027955
| 45>      2      27.0000000000     -1.4589639639
| 46>      3      13.0780456840      1.4348422075
| 47>     s 1
| 48>      1       5.0352712861      1.0000000000
| 49>     s 1
| 50>      1       1.0482706438      1.0000000000
| 51>     s 1
| 52>      1       0.4770877341      1.0000000000
| 53>     s 1
| 54>      1       0.1222585725      1.0000000000
| 55>     s 1
| 56>      1       0.0440074006      1.0000000000
| 57>     p 4
| 58>      1      18.0000000000     -0.0654422411
| 59>      2      12.3186062500      0.2426593672
| 60>      3       5.3719234505     -0.7127910952
| 61>      4       1.3506646748      1.2524914706
| 62>     p 1
| 63>      1       0.6621281681      1.0000000000
| 64>     p 1
| 65>      1       0.3107138519      1.0000000000
| 66>     p 1
| 67>      1       0.0700000000      1.0000000000
| 68>     d 4
| 69>      1       7.7352877672      0.0616881431
| 70>      2       6.0949443610     -0.1303015252
| 71>      3       1.3871105497      0.4061349964
| 72>      4       0.6232402785      0.6762765945
| 73>     d 1
| 74>      1       0.2651732855      1.0000000000
| 75>     d 1
| 76>      1       0.1032109685      1.0000000000
| 77>   end
| 78>   NewAuxGTO 75
| 79>     S 1
| 80>      1 1310.72 1.0
| 81>     S 1
| 82>      1  655.36 1.0
| 83>     S 1
| 84>      1  327.68 1.0
| 85>     S 1
| 86>      1  163.84 1.0
| 87>     S 1
| 88>      1   81.82 1.0
| 89>     S 1
| 90>      1   40.96 1.0
| 91>     S 1
| 92>      1   20.48 1.0
| 93>     S 1
| 94>      1   10.24 1.0
| 95>     S 1
| 96>      1    5.12 1.0
| 97>     S 1
| 98>      1    2.56 1.0
| 99>     S 1
|100>      1    1.28 1.0
|101>     S 1
|102>      1    0.64 1.0
|103>     S 1
|104>      1    0.32 1.0
|105>     S 1
|106>      1    0.16 1.0
|107>     S 1
|108>      1    0.08 1.0
|109>     S 1
|110>      1    0.04 1.0
|111>     S 1
|112>      1    0.02 1.0
|113>     S 1
|114>      1    0.01 1.0
|115>   end
|116> end
|117>
|118> * xyz 0 6
|119> 75  0.0 0.0 0.0
|120> *
|121>
|122>
|123>                          ****END OF INPUT****

CARTESIAN COORDINATES (ANGSTROEM)
---------------------------------
  Re     0.000000    0.000000    0.000000

 Total Charge           Charge          ....    0
 Multiplicity           Mult            ....    6
 Number of Electrons    NEL             ....   15
 Basis Dimension        Dim             ....   33

ORBITAL ENERGIES
----------------

  NO   OCC          E(Eh)            E(eV)
   0   2.0000      -4.082366      -111.0868
   1   2.0000      -2.444315       -66.5132
   2   2.0000      -2.436822       -66.3093
   3   2.0000      -2.430772       -66.1447
   4   2.0000      -0.661437       -17.9986
   5   1.0000      -0.756953       -20.5977
   6   1.0000      -0.589168       -16.0321
   7   1.0000      -0.284991        -7.7550
   8   1.0000      -0.272602        -7.4179
   9   1.0000      -0.262743        -7.1496
  10   0.0000      -0.245480        -6.6799
  11   0.0000      -0.235372        -6.4048
  12   0.0000      -0.222597        -6.0572
  13   0.0000       0.111523         3.0347
  14   0.0000       0.213147         5.8000

CleanUpVectors: The p-vectors have cracked symmetry
CleanUpVectors: The p-vectors have cracked symmetry
CleanUpVectors: The p-vectors have cracked symmetry
CleanUpVectors: The d-vectors have cracked symmetry at i=4
CleanUpVectors: The d-vectors have cracked symmetry at i=5
CleanUpVectors: The p-vectors have cracked symmetry
CleanUpVectors: The p-vectors have cracked symmetry
CleanUpVectors: The p-vectors have cracked symmetry
CleanUpVectors: The d-vectors have cracked symmetry at i=10
CleanUpVectors: The d-vectors have cracked symmetry at i=11
CleanUpVectors: The d-vectors have cracked symmetry at i=12
CleanUpVectors: The d-vectors have cracked symmetry at i=14
CleanUpVectors: The d-vectors have cracked symmetry at i=15
CleanUpVectors: The d-vectors have cracked symmetry at i=16
CleanUpVectors: The d-vectors have cracked symmetry at i=17
CleanUpVectors: The d-vectors have cracked symmetry at i=18
CleanUpVectors: The p-vectors have cracked symmetry
CleanUpVectors: The p-vectors have cracked symmetry
CleanUpVectors: The p-vectors have cracked symmetry
CleanUpVectors: The d-vectors have cracked symmetry at i=22
CleanUpVectors: The d-vectors have cracked symmetry at i=23
CleanUpVectors: The d-vectors have cracked symmetry at i=24
CleanUpVectors: The d-vectors have cracked symmetry at i=25
CleanUpVectors: The d-vectors have cracked symmetry at i=26
CleanUpVectors: The p-vectors have cracked symmetry
CleanUpVectors: The p-vectors have cracked symmetry
CleanUpVectors: The p-vectors have cracked symmetry
--------------------------
ATOM BASIS FOR ELEMENT Re
--------------------------
 NewGTO Re
 S 8
    1         30.000000000000        -0.322707057978
    2         27.000000000000         0.472091295251
    3         13.078045684000        -0.464285981683
    4          5.035271286100         0.877773079453
    5          1.048270643800        -0.984665551028
    6          0.477087734100        -0.347971340202
    7          0.122258572500         0.000568198830
    8          0.044007400600        -0.001217087971
 P 21
    1         18.000000000000        -0.010271306573
    2         12.318606250000         0.038085932134
    3          5.371923450500        -0.111874161672
    4          1.350664674800         0.196581346509
    5         18.000000000000        -0.016618189889
    6         12.318606250000         0.061620130586
    7          5.371923450500        -0.181003852741
    8          1.350664674800         0.318053610982
    9         18.000000000000         0.019621086703
   10         12.318606250000        -0.072754850739
   11          5.371923450500         0.213711138942
   12          1.350664674800        -0.375525705216
   13          0.662128168100         0.196730636172
   14          0.662128168100         0.318295150259
   15          0.662128168100        -0.375810890493
   16          0.310713851900         0.036590519191
   17          0.310713851900         0.059200666610
   18          0.310713851900        -0.069898191092
   19          0.070000000000        -0.000290372284
   20          0.070000000000        -0.000469800188
   21          0.070000000000         0.000554692796
 D 21
    1         30.000000000000         0.000014287028
    2         27.000000000000        -0.000023222925
    3         13.078045684000         0.000047151706
    4          5.035271286100        -0.000244217936
    5          1.048270643800         0.002607332537
    6          0.477087734100        -0.004143451734
    7          0.122258572500        -0.000049854506
    8          0.044007400600         0.031970157056
    9          7.735287767200         0.009690468502
   10          6.094944361000        -0.020468809113
   11          1.387110549700         0.063798944048
   12          0.623240278500         0.106234953884
   13          7.735287767200        -0.036630832931
   14          6.094944361000         0.077373919207
   15          1.387110549700        -0.241165683597
   16          0.623240278500        -0.401577575582
   17          7.735287767200        -0.018945035469
   18          6.094944361000         0.040016879946
   19          1.387110549700        -0.124728051862
   20          0.623240278500        -0.207691193567
   21          7.735287767200         0.016267426623
 S 8
    1         30.000000000000        -2.042681096840
    2         27.000000000000         2.988258053098
    3         13.078045684000        -2.938851738342
    4          5.035271286100         3.268429368268
    5          1.048270643800        -1.841607467258
    6          0.477087734100         1.264567717977
    7          0.122258572500        -0.428096745462
    8          0.044007400600         0.157335541069
 S 8
    1         30.000000000000        -1.927198221189
    2         27.000000000000         2.819317030589
    3         13.078045684000        -2.772703899416
    4          5.035271286100         1.309055167753
    5          1.048270643800        -0.595078685291
    6          0.477087734100         0.401741961805
    7          0.122258572500        -0.135589460419
    8          0.044007400600         0.049915420005
 P 21
    1         18.000000000000        -0.003319992050
    2         12.318606250000         0.012310507043
    3          5.371923450500        -0.036161059427
    4          1.350664674800         0.063540943209
    5         18.000000000000        -0.005371493678
    6         12.318606250000         0.019917460571
    7          5.371923450500        -0.058505833498
    8          1.350664674800         0.102804395187
    9         18.000000000000         0.006342119322
   10         12.318606250000        -0.023516533594
   11          5.371923450500         0.069077802060
   12          1.350664674800        -0.121381086928
   13          0.662128168100         0.149197744749
   14          0.662128168100         0.241390560757
   15          0.662128168100        -0.285009688403
   16          0.310713851900        -0.143958814362
   17          0.310713851900        -0.232914371348
   18          0.310713851900         0.275001856718
   19          0.070000000000        -0.323037929284
   20          0.070000000000        -0.522650707803
   21          0.070000000000         0.617093373110
 D 21
    1          7.735287767200        -0.015217157934
    2          6.094944361000         0.032142625606
    3          1.387110549700        -0.100184898947
    4          0.623240278500        -0.166823107786
    5          7.735287767200        -0.020806736944
    6          6.094944361000         0.043949281369
    7          1.387110549700        -0.136984898705
    8          0.623240278500        -0.228100709408
    9          7.735287767200         0.006600548072
   10          6.094944361000        -0.013942087373
   11          1.387110549700         0.043455896594
   12          0.623240278500         0.072360683073
   13          7.735287767200        -0.030117170429
   14          6.094944361000         0.063615356930
   15          1.387110549700        -0.198281813801
   16          0.623240278500        -0.330169404205
   17          7.735287767200        -0.003881404783
   18          6.094944361000         0.008198544125
   19          1.387110549700        -0.025553927197
   20          0.623240278500        -0.042551178829
   21          0.265173285500        -0.133751050716
 D 21
    1          7.735287767200        -0.007160876152
    2          6.094944361000         0.015125647126
    3          1.387110549700        -0.047144917389
    4          0.623240278500        -0.078503464272
    5          7.735287767200        -0.009791215090
    6          6.094944361000         0.020681612311
    7          1.387110549700        -0.064462227351
    8          0.623240278500        -0.107339421554
    9          7.735287767200         0.003106079827
   10          6.094944361000        -0.006560854623
   11          1.387110549700         0.020449435758
   12          0.623240278500         0.034051423533
   13          7.735287767200        -0.014172510296
   14          6.094944361000         0.029936056019
   15          1.387110549700        -0.093307273148
   16          0.623240278500        -0.155370813857
   17          7.735287767200        -0.001826507885
   18          6.094944361000         0.003858063336
   19          1.387110549700        -0.012025143503
   20          0.623240278500        -0.020023694507
   21          0.265173285500        -0.164095348429
 P 21
    1         18.000000000000         0.012311373298
    2         12.318606250000        -0.045650485126
    3          5.371923450500         0.134094387803
    4          1.350664674800        -0.235625947222
    5         18.000000000000        -0.011421069243
    6         12.318606250000         0.042349243987
    7          5.371923450500        -0.124397274873
    8          1.350664674800         0.218586521063
    9         18.000000000000        -0.003228343511
   10         12.318606250000         0.011970674910
   11          5.371923450500        -0.035162831659
   12          1.350664674800         0.061786892445
   13          0.662128168100        -0.839013055175
   14          0.662128168100         0.778339342584
   15          0.662128168100         0.220009765527
   16          0.310713851900         1.470838433526
   17          0.310713851900        -1.364473904590
   18          0.310713851900        -0.385689849391
   19          0.070000000000        -0.643873339900
   20          0.070000000000         0.597311268274
   21          0.070000000000         0.168839354366
 D 21
    1          7.735287767200        -0.027326024910
    2          6.094944361000         0.057719726101
    3          1.387110549700        -0.179905804758
    4          0.623240278500        -0.299570551790
    5          7.735287767200        -0.037363442932
    6          6.094944361000         0.078921383528
    7          1.387110549700        -0.245988953436
    8          0.623240278500        -0.409609054104
    9          7.735287767200         0.011852853327
   10          6.094944361000        -0.025036332573
   11          1.387110549700         0.078035393860
   12          0.623240278500         0.129940810020
   13          7.735287767200        -0.054082539785
   14          6.094944361000         0.114236497754
   15          1.387110549700        -0.356062137666
   16          0.623240278500        -0.592897662171
   17          7.735287767200        -0.006969985082
   18          6.094944361000         0.014722435158
   19          1.387110549700        -0.045888151661
   20          0.623240278500        -0.076410758019
   21          0.265173285500         0.663437127956
 P 21
    1         18.000000000000         0.121777411371
    2         12.318606250000        -0.451549780171
    3          5.371923450500         1.326388781358
    4          1.350664674800        -2.330683767710
    5         18.000000000000        -0.112971007682
    6         12.318606250000         0.418895697569
    7          5.371923450500        -1.230470212174
    8          1.350664674800         2.162139027764
    9         18.000000000000        -0.031933018862
   10         12.318606250000         0.118407408116
   11          5.371923450500        -0.347811613804
   12          1.350664674800         0.611162348406
   13          0.662128168100         2.821543929285
   14          0.662128168100        -2.617502353849
   15          0.662128168100        -0.739877901002
   16          0.310713851900        -1.360836748470
   17          0.310713851900         1.262427054689
   18          0.310713851900         0.356844714205
   19          0.070000000000         0.235777492393
   20          0.070000000000        -0.218727107140
   21          0.070000000000        -0.061826631287
 end
  // -----------------------------------------------
  // The basis set
  // -----------------------------------------------
  BAS[ATNO] = new BFNGauss[NSH];
  // Basis function   1 L = s
  InitBFNGauss(BAS[ATNO][  0]);
  BAS[ATNO][  0].l  = 0;
  BAS[ATNO][  0].ng = 8;
  BAS[ATNO][  0].a[  0] =        30.000000000000;     BAS[ATNO][  0].d[  0] =         0.322707057978;
  BAS[ATNO][  0].a[  1] =        27.000000000000;     BAS[ATNO][  0].d[  1] =        -0.472091295251;
  BAS[ATNO][  0].a[  2] =        13.078045684000;     BAS[ATNO][  0].d[  2] =         0.464285981683;
  BAS[ATNO][  0].a[  3] =         5.035271286100;     BAS[ATNO][  0].d[  3] =        -0.877773079453;
  BAS[ATNO][  0].a[  4] =         1.048270643800;     BAS[ATNO][  0].d[  4] =         0.984665551028;
  BAS[ATNO][  0].a[  5] =         0.477087734100;     BAS[ATNO][  0].d[  5] =         0.347971340202;
  BAS[ATNO][  0].a[  6] =         0.122258572500;     BAS[ATNO][  0].d[  6] =        -0.000568198830;
  BAS[ATNO][  0].a[  7] =         0.044007400600;     BAS[ATNO][  0].d[  7] =         0.001217087971;

FINAL SINGLE POINT ENERGY       -76.871790957052

DIPOLE MOMENT
-------------
                                X             Y             Z
Electronic contribution:      0.00000      -0.00000       0.00000
Nuclear contribution   :      0.00000       0.00000       0.00000
                        -----------------------------------------
Total Dipole Moment    :      0.00000      -0.00000       0.00000
                        -----------------------------------------
Magnitude (a.u.)       :      0.00000
Magnitude (Debye)      :      0.00000

Rotational constants in cm-1:     0.000000     0.000000     0.000000
Rotational constants in MHz :     0.000000     0.000000     0.000000

                             ****ORCA TERMINATED NORMALLY****
TOTAL RUN TIME: 0 days 0 hours 0 minutes 1 seconds 153 msec
