                         Program Version 4.2.0 -  RELEASE  -
|  1> #
|  2> # 76_Os CCSD(T)/Def2-TZVP
|  3> #
|  4> ! CCSD(T) Def2-TZVP tightscf
|  5>
|  6> *xyz 0 5
|  7>  Os 0.0 0.0 0.0
|  8> *
|  9>
| 10> %maxcore 5000
| 11>
| 12> %pal
| 13> nprocs 24
| 14> end
| 15>
| 16> %method
| 17> NewNCore Os 60 end
| 18> end
| 19>
| 20>
| 21>                          ****END OF INPUT****

CARTESIAN COORDINATES (ANGSTROEM)
---------------------------------
  Os     0.000000    0.000000    0.000000

 Total Charge           Charge          ....    0
 Multiplicity           Mult            ....    5
 Number of Electrons    NEL             ....   16
 Basis Dimension        Dim             ....   40

ORBITAL ENERGIES
----------------
                 SPIN UP ORBITALS
  NO   OCC          E(Eh)            E(eV)
   0   1.0000      -3.948025      -107.4312
   1   1.0000      -2.274528       -61.8931
   2   1.0000      -2.274528       -61.8931
   3   1.0000      -2.223620       -60.5078
   4   1.0000      -0.407043       -11.0762
   5   1.0000      -0.407043       -11.0762
   6   1.0000      -0.383369       -10.4320
   7   1.0000      -0.354890        -9.6571
   8   1.0000      -0.354890        -9.6571
   9   1.0000      -0.288617        -7.8537
  10   0.0000       0.049848         1.3564
  11   0.0000       0.049848         1.3564
  12   0.0000       0.060074         1.6347
  13   0.0000       0.230273         6.2660
  14   0.0000       0.365743         9.9524

                 SPIN DOWN ORBITALS
  NO   OCC          E(Eh)            E(eV)
   0   1.0000      -3.805881      -103.5633
   1   1.0000      -2.078986       -56.5721
   2   1.0000      -2.048392       -55.7396
   3   1.0000      -2.048392       -55.7396
   4   1.0000      -0.273491        -7.4421
   5   1.0000      -0.273491        -7.4421
   6   0.0000       0.016591         0.4515
   7   0.0000       0.105314         2.8657
   8   0.0000       0.105314         2.8657
   9   0.0000       0.108172         2.9435
  10   0.0000       0.158696         4.3183

E(0)                                       ...    -89.803781361
E(0)                                       ...    -89.803781361
E(CORR)                                    ...     -0.291303792
E(TOT)                                     ...    -90.095085153
E(CCSD(T))                                 ...    -90.102933218

MULLIKEN ATOMIC CHARGES AND SPIN DENSITIES
------------------------------------------
   0 Os:   -0.000000    4.000000
Sum of atomic charges       :   -0.0000000

LOEWDIN ATOMIC CHARGES AND SPIN DENSITIES
-----------------------------------------
   0 Os:   -0.000000    4.000000

FINAL SINGLE POINT ENERGY       -90.102933218294

DIPOLE MOMENT
-------------
                                X             Y             Z
Electronic contribution:      0.00000      -0.00000      -0.00000
Nuclear contribution   :      0.00000       0.00000       0.00000
                        -----------------------------------------
Total Dipole Moment    :      0.00000      -0.00000      -0.00000
                        -----------------------------------------
Magnitude (a.u.)       :      0.00000
Magnitude (Debye)      :      0.00000

Rotational constants in cm-1:     0.000000     0.000000     0.000000
Rotational constants in MHz :     0.000000     0.000000     0.000000

                             ****ORCA TERMINATED NORMALLY****
TOTAL RUN TIME: 0 days 0 hours 0 minutes 16 seconds 257 msec
