                         Program Version 4.2.0 -  RELEASE  -
|  1> # input to generate an atomic fitting density for Os
|  2> # this file is use internally by ORCA
|  3> #
|  4> # atomic ground state (S=5): 1s2 2s2 2p6 3s2 3p6 4s2 3d10 4p6 5s2 4d10 5p6 6s2 4f14 5d6
|  5> #
|  6> ! RHF AllowRHF def2-SVP def2/J  NoMulliken NoLoewdin NoMayer NoPrintMOs
|  7>
|  8> %output print[p_atomdensfit] 2 end
|  9>
| 10> %scf
| 11>   guess hcore
| 12>   maxiter 1000
| 13>   maxdisk 500000
| 14>   SCFMode Conventional
| 15>   lshift 1.000000
| 16>   hftyp rohf
| 17>   rohf_case sahf
| 18>   rohf_numop   2
| 19>   rohf_norb[1] 5
| 20>   rohf_nel[1]  6
| 21> end
| 22>
| 23> %basis
| 24>   NewECP 76
| 25>     N_core 60
| 26>     lmax f
| 27>     s 3
| 28>       1      13.8757539000    885.4057191000  2
| 29>       2       6.9378769000     25.9670401000  2
| 30>       3       2.7670751000    -18.9094570000  2
| 31>     p 3
| 32>       1      10.1937926000    320.0839019000  2
| 33>       2       5.0968962000     26.1487649000  2
| 34>       3       2.7670751000    -18.9094570000  2
| 35>     d 3
| 36>       1       7.0992385000    115.0448431000  2
| 37>       2       3.5496192000     13.6225746000  2
| 38>       3       2.7670751000    -18.9094570000  2
| 39>     f 1
| 40>       1       2.7670751000     18.9094570000  2
| 41>   end
| 42>   NewGTO 76
| 43>     s 3
| 44>      1      30.0000000000      0.9881517203
| 45>      2      27.0000000000     -1.4700619919
| 46>      3      13.5247300050      1.4560441448
| 47>     s 1
| 48>      1       5.2402883472      1.0000000000
| 49>     s 1
| 50>      1       1.1306661245      1.0000000000
| 51>     s 1
| 52>      1       0.5168996692      1.0000000000
| 53>     s 1
| 54>      1       0.1322295354      1.0000000000
| 55>     s 1
| 56>      1       0.0472203188      1.0000000000
| 57>     p 4
| 58>      1      15.5000000000      0.3696785165
| 59>      2      14.0000000000     -0.5355179504
| 60>      3       5.5458290420      0.6871857809
| 61>      4       1.4139502215     -1.2522275443
| 62>     p 1
| 63>      1       0.6813668676      1.0000000000
| 64>     p 1
| 65>      1       0.3091145265      1.0000000000
| 66>     p 1
| 67>      1       0.0520000000      1.0000000000
| 68>     d 4
| 69>      1       8.2945059487      0.0525688853
| 70>      2       6.3060397430     -0.1241172847
| 71>      3       1.4890109110      0.4162938627
| 72>      4       0.6731539061      0.6676861931
| 73>     d 1
| 74>      1       0.2859080522      1.0000000000
| 75>     d 1
| 76>      1       0.1105801205      1.0000000000
| 77>   end
| 78>   NewAuxGTO 76
| 79>     S 1
| 80>      1 1310.72 1.0
| 81>     S 1
| 82>      1  655.36 1.0
| 83>     S 1
| 84>      1  327.68 1.0
| 85>     S 1
| 86>      1  163.84 1.0
| 87>     S 1
| 88>      1   81.82 1.0
| 89>     S 1
| 90>      1   40.96 1.0
| 91>     S 1
| 92>      1   20.48 1.0
| 93>     S 1
| 94>      1   10.24 1.0
| 95>     S 1
| 96>      1    5.12 1.0
| 97>     S 1
| 98>      1    2.56 1.0
| 99>     S 1
|100>      1    1.28 1.0
|101>     S 1
|102>      1    0.64 1.0
|103>     S 1
|104>      1    0.32 1.0
|105>     S 1
|106>      1    0.16 1.0
|107>     S 1
|108>      1    0.08 1.0
|109>     S 1
|110>      1    0.04 1.0
|111>     S 1
|112>      1    0.02 1.0
|113>     S 1
|114>      1    0.01 1.0
|115>   end
|116> end
|117>
|118> * xyz 0 5
|119> 76  0.0 0.0 0.0
|120> *
|121>
|122>
|123>                          ****END OF INPUT****

CARTESIAN COORDINATES (ANGSTROEM)
---------------------------------
  Os     0.000000    0.000000    0.000000

 Total Charge           Charge          ....    0
 Multiplicity           Mult            ....    5
 Number of Electrons    NEL             ....   16
 Basis Dimension        Dim             ....   33

ORBITAL ENERGIES
----------------

  NO   OCC          E(Eh)            E(eV)
   0   2.0000      -4.580614      -124.6448
   1   2.0000      -2.798711       -76.1568
   2   2.0000      -2.789327       -75.9014
   3   2.0000      -2.789120       -75.8958
   4   2.0000      -0.885745       -24.1023
   5   1.2000      -0.921184       -25.0667
   6   1.2000      -0.653503       -17.7827
   7   1.2000      -0.295913        -8.0522
   8   1.2000      -0.281758        -7.6670
   9   1.2000      -0.281453        -7.6587
  10   0.0000      -0.463976       -12.6254
  11   0.0000      -0.463535       -12.6134
  12   0.0000      -0.443382       -12.0650
  13   0.0000       0.062276         1.6946
  14   0.0000       0.172149         4.6844

CleanUpVectors: The p-vectors have cracked symmetry
CleanUpVectors: The p-vectors have cracked symmetry
CleanUpVectors: The p-vectors have cracked symmetry
CleanUpVectors: The d-vectors have cracked symmetry at i=4
CleanUpVectors: The d-vectors have cracked symmetry at i=5
CleanUpVectors: The p-vectors have cracked symmetry
CleanUpVectors: The p-vectors have cracked symmetry
CleanUpVectors: The p-vectors have cracked symmetry
CleanUpVectors: The d-vectors have cracked symmetry at i=10
CleanUpVectors: The d-vectors have cracked symmetry at i=11
CleanUpVectors: The d-vectors have cracked symmetry at i=12
CleanUpVectors: The d-vectors have cracked symmetry at i=14
CleanUpVectors: The d-vectors have cracked symmetry at i=15
CleanUpVectors: The d-vectors have cracked symmetry at i=16
CleanUpVectors: The d-vectors have cracked symmetry at i=17
CleanUpVectors: The d-vectors have cracked symmetry at i=18
CleanUpVectors: The p-vectors have cracked symmetry
CleanUpVectors: The p-vectors have cracked symmetry
CleanUpVectors: The p-vectors have cracked symmetry
CleanUpVectors: The d-vectors have cracked symmetry at i=22
CleanUpVectors: The d-vectors have cracked symmetry at i=23
CleanUpVectors: The d-vectors have cracked symmetry at i=24
CleanUpVectors: The d-vectors have cracked symmetry at i=25
CleanUpVectors: The d-vectors have cracked symmetry at i=26
CleanUpVectors: The p-vectors have cracked symmetry
CleanUpVectors: The p-vectors have cracked symmetry
CleanUpVectors: The p-vectors have cracked symmetry
--------------------------
ATOM BASIS FOR ELEMENT Os
--------------------------
 NewGTO Os
 S 8
    1         30.000000000000        -0.328314565462
    2         27.000000000000         0.488429817160
    3         13.524730005000        -0.483772371056
    4          5.240288347200         0.907183128247
    5          1.130666124500        -1.007665577530
    6          0.516899669200        -0.343157179570
    7          0.132229535400         0.001402549124
    8          0.047220318800        -0.001755350109
 P 21
    1         15.500000000000        -0.165376834542
    2         14.000000000000         0.239565621276
    3          5.545829042000        -0.307414697136
    4          1.413950221500         0.560187888016
    5         15.500000000000         0.006384812183
    6         14.000000000000        -0.009249067450
    7          5.545829042000         0.011868561331
    8          1.413950221500        -0.021627542105
    9         15.500000000000         0.007407684773
   10         14.000000000000        -0.010730805253
   11          5.545829042000         0.013769952589
   12          1.413950221500        -0.025092361331
   13          0.681366867600         0.532374971424
   14          0.681366867600        -0.020553750548
   15          0.681366867600        -0.023846544047
   16          0.309114526500         0.065622924991
   17          0.309114526500        -0.002533547411
   18          0.309114526500        -0.002939431895
   19          0.052000000000         0.001700219875
   20          0.052000000000        -0.000065641507
   21          0.052000000000        -0.000076157540
 D 21
    1         30.000000000000        -0.000000513887
    2         27.000000000000         0.000000849448
    3         13.524730005000        -0.000001679620
    4          5.240288347200         0.000008580180
    5          1.130666124500        -0.000084391146
    6          0.516899669200         0.000125541761
    7          0.132229535400        -0.000060806960
    8          0.047220318800        -0.000598262323
    9          8.294505948700         0.000275925395
   10          6.306039743000        -0.000651471124
   11          1.489010911000         0.002185057717
   12          0.673153906100         0.003504574532
   13          8.294505948700        -0.000398488309
   14          6.306039743000         0.000940847170
   15          1.489010911000        -0.003155635441
   16          0.673153906100        -0.005061266580
   17          8.294505948700        -0.002407581619
   18          6.306039743000         0.005684398509
   19          1.489010911000        -0.019065678226
   20          0.673153906100        -0.030579096293
   21          8.294505948700         0.026350856416
 S 8
    1         30.000000000000        -2.079291994965
    2         27.000000000000         3.093338876070
    3         13.524730005000        -3.063842193868
    4          5.240288347200         3.376512981352
    5          1.130666124500        -1.948770646708
    6          0.516899669200         1.323059129925
    7          0.132229535400        -0.439483431451
    8          0.047220318800         0.160246977145
 S 8
    1         30.000000000000        -1.940888151279
    2         27.000000000000         2.887437063670
    3         13.524730005000        -2.859903768141
    4          5.240288347200         1.358735492333
    5          1.130666124500        -0.626475227761
    6          0.516899669200         0.417141733224
    7          0.132229535400        -0.138010883702
    8          0.047220318800         0.050408581520
 P 21
    1         15.500000000000        -0.056361081537
    2         14.000000000000         0.081644914487
    3          5.545829042000        -0.104768148810
    4          1.413950221500         0.190914255435
    5         15.500000000000         0.002175969331
    6         14.000000000000        -0.003152118893
    7          5.545829042000         0.004044852804
    8          1.413950221500        -0.007370752182
    9         15.500000000000         0.002524568369
   10         14.000000000000        -0.003657101017
   11          5.545829042000         0.004692854491
   12          1.413950221500        -0.008551576325
   13          0.681366867600         0.485259244724
   14          0.681366867600        -0.018734722709
   15          0.681366867600        -0.021736100633
   16          0.309114526500        -0.645703922249
   17          0.309114526500         0.024929115863
   18          0.309114526500         0.028922860483
   19          0.052000000000        -0.759045188772
   20          0.052000000000         0.029304956660
   21          0.052000000000         0.033999728573
 D 21
    1          8.294505948700        -0.001036794674
    2          6.306039743000         0.002447914559
    3          1.489010911000        -0.008210393982
    4          0.673153906100        -0.013168502332
    5          8.294505948700        -0.033549825656
    6          6.306039743000         0.079212508289
    7          1.489010911000        -0.265681618233
    8          0.673153906100        -0.426121939690
    9          8.294505948700         0.015600283380
   10          6.306039743000        -0.036832906056
   11          1.489010911000         0.123538899303
   12          0.673153906100         0.198141805023
   13          8.294505948700         0.001993751140
   14          6.306039743000        -0.004707327851
   15          1.489010911000         0.015788547895
   16          0.673153906100         0.025322966258
   17          8.294505948700         0.000902569222
   18          6.306039743000        -0.002131002787
   19          1.489010911000         0.007147460435
   20          0.673153906100         0.011463682450
   21          0.285908052200        -0.009465862001
 D 21
    1          8.294505948700        -0.000443565256
    2          6.306039743000         0.001047275682
    3          1.489010911000        -0.003512600521
    4          0.673153906100        -0.005633796411
    5          8.294505948700        -0.014353408053
    6          6.306039743000         0.033888982495
    7          1.489010911000        -0.113664873187
    8          0.673153906100        -0.182305033217
    9          8.294505948700         0.006674169799
   10          6.306039743000        -0.015757987416
   11          1.489010911000         0.052852859823
   12          0.673153906100         0.084769745441
   13          8.294505948700         0.000852973842
   14          6.306039743000        -0.002013906069
   15          1.489010911000         0.006754713805
   16          0.673153906100         0.010833763238
   17          8.294505948700         0.000386140437
   18          6.306039743000        -0.000911693339
   19          1.489010911000         0.003057852437
   20          0.673153906100         0.004904434189
   21          0.285908052200        -0.009577147343
 P 21
    1         15.500000000000        -0.004906773985
    2         14.000000000000         0.007107974714
    3          5.545829042000        -0.009121074562
    4          1.413950221500         0.016620921325
    5         15.500000000000        -0.036238028636
    6         14.000000000000         0.052494570162
    7          5.545829042000        -0.067361929069
    8          1.413950221500         0.122750594325
    9         15.500000000000        -0.078309723022
   10         14.000000000000         0.113439814588
   11          5.545829042000        -0.145567907695
   12          1.413950221500         0.265261809322
   13          0.681366867600         0.054924912607
   14          0.681366867600         0.405637300969
   15          0.681366867600         0.876574854687
   16          0.309114526500        -0.098072437919
   17          0.309114526500        -0.724294989810
   18          0.309114526500        -1.565188344186
   19          0.052000000000         0.047421846818
   20          0.052000000000         0.350224862220
   21          0.052000000000         0.756829578975
 D 21
    1          8.294505948700        -0.001674829340
    2          6.306039743000         0.003954340459
    3          1.489010911000        -0.013263000942
    4          0.673153906100        -0.021272287203
    5          8.294505948700        -0.054196104401
    6          6.306039743000         0.127959215440
    7          1.489010911000        -0.429179837380
    8          0.673153906100        -0.688353774703
    9          8.294505948700         0.025200565738
   10          6.306039743000        -0.059499564704
   11          1.489010911000         0.199563692355
   12          0.673153906100         0.320076594848
   13          8.294505948700         0.003220688717
   14          6.306039743000        -0.007604177569
   15          1.489010911000         0.025504686639
   16          0.673153906100         0.040906505366
   17          8.294505948700         0.001458002682
   18          6.306039743000        -0.003442403865
   19          1.489010911000         0.011545947089
   20          0.673153906100         0.018518335599
   21          0.285908052200         0.049445509407
 P 21
    1         15.500000000000        -0.053698155026
    2         14.000000000000         0.077787387247
    3          5.545829042000        -0.099818103967
    4          1.413950221500         0.181894012771
    5         15.500000000000        -0.396577320953
    6         14.000000000000         0.574483678690
    7          5.545829042000        -0.737187268998
    8          1.413950221500         1.343342992834
    9         15.500000000000        -0.856996400702
   10         14.000000000000         1.241448814362
   11          5.545829042000        -1.593048323230
   12          1.413950221500         2.902939852942
   13          0.681366867600        -0.213630718396
   14          0.681366867600        -1.577728283841
   15          0.681366867600        -3.409442217446
   16          0.309114526500         0.096685905255
   17          0.309114526500         0.714055022215
   18          0.309114526500         1.543059957315
   19          0.052000000000        -0.013663099588
   20          0.052000000000        -0.100906175043
   21          0.052000000000        -0.218056414856
 end
  // -----------------------------------------------
  // The basis set
  // -----------------------------------------------
  BAS[ATNO] = new BFNGauss[NSH];
  // Basis function   1 L = s
  InitBFNGauss(BAS[ATNO][  0]);
  BAS[ATNO][  0].l  = 0;
  BAS[ATNO][  0].ng = 8;
  BAS[ATNO][  0].a[  0] =        30.000000000000;     BAS[ATNO][  0].d[  0] =         0.328314565462;
  BAS[ATNO][  0].a[  1] =        27.000000000000;     BAS[ATNO][  0].d[  1] =        -0.488429817160;
  BAS[ATNO][  0].a[  2] =        13.524730005000;     BAS[ATNO][  0].d[  2] =         0.483772371056;
  BAS[ATNO][  0].a[  3] =         5.240288347200;     BAS[ATNO][  0].d[  3] =        -0.907183128247;
  BAS[ATNO][  0].a[  4] =         1.130666124500;     BAS[ATNO][  0].d[  4] =         1.007665577530;
  BAS[ATNO][  0].a[  5] =         0.516899669200;     BAS[ATNO][  0].d[  5] =         0.343157179570;
  BAS[ATNO][  0].a[  6] =         0.132229535400;     BAS[ATNO][  0].d[  6] =        -0.001402549124;
  BAS[ATNO][  0].a[  7] =         0.047220318800;     BAS[ATNO][  0].d[  7] =         0.001755350109;

FINAL SINGLE POINT ENERGY       -88.701505715679

DIPOLE MOMENT
-------------
                                X             Y             Z
Electronic contribution:      0.00000       0.00000      -0.00000
Nuclear contribution   :      0.00000       0.00000       0.00000
                        -----------------------------------------
Total Dipole Moment    :      0.00000       0.00000      -0.00000
                        -----------------------------------------
Magnitude (a.u.)       :      0.00000
Magnitude (Debye)      :      0.00000

Rotational constants in cm-1:     0.000000     0.000000     0.000000
Rotational constants in MHz :     0.000000     0.000000     0.000000

                             ****ORCA TERMINATED NORMALLY****
TOTAL RUN TIME: 0 days 0 hours 0 minutes 1 seconds 48 msec
