                         Program Version 4.2.0 -  RELEASE  -
|  1> # input to generate an atomic fitting density for Ir
|  2> # this file is use internally by ORCA
|  3> #
|  4> # atomic ground state (S=4): 1s2 2s2 2p6 3s2 3p6 4s2 3d10 4p6 5s2 4d10 5p6 6s2 4f14 5d7
|  5> #
|  6> ! RHF AllowRHF def2-SVP def2/J  NoMulliken NoLoewdin NoMayer NoPrintMOs
|  7>
|  8> %output print[p_atomdensfit] 2 end
|  9>
| 10> %scf
| 11>   guess hcore
| 12>   maxiter 1000
| 13>   maxdisk 500000
| 14>   SCFMode Conventional
| 15>   lshift 1.000000
| 16>   hftyp rohf
| 17>   rohf_case sahf
| 18>   rohf_numop   2
| 19>   rohf_norb[1] 5
| 20>   rohf_nel[1]  7
| 21> end
| 22>
| 23> %basis
| 24>   NewECP 77
| 25>     N_core 60
| 26>     lmax f
| 27>     s 3
| 28>       1      13.6522026000    732.2691998000  2
| 29>       2       6.8261013000     26.4847209000  2
| 30>       3       3.0340719000    -21.5310311000  2
| 31>     p 3
| 32>       1      10.2798684000    299.4894736000  2
| 33>       2       5.1399341000     26.4662335000  2
| 34>       3       3.0340719000    -21.5310311000  2
| 35>     d 3
| 36>       1       7.3498590000    124.4575945000  2
| 37>       2       3.6749295000     14.0359952000  2
| 38>       3       3.0340719000    -21.5310311000  2
| 39>     f 1
| 40>       1       3.0340719000     21.5310311000  2
| 41>   end
| 42>   NewGTO 77
| 43>     s 3
| 44>      1      30.0000000000      0.9616390282
| 45>      2      27.0000000000     -1.4589919579
| 46>      3      13.9619739110      1.4725632748
| 47>     s 1
| 48>      1       5.3956977802      1.0000000000
| 49>     s 1
| 50>      1       1.2149128721      1.0000000000
| 51>     s 1
| 52>      1       0.5588574376      1.0000000000
| 53>     s 1
| 54>      1       0.1409797431      1.0000000000
| 55>     s 1
| 56>      1       0.0500219250      1.0000000000
| 57>     p 4
| 58>      1      15.9026641430     -0.3696129600
| 59>      2      14.4158306980      0.5328002574
| 60>      3       5.7597608991     -0.6875844229
| 61>      4       1.5008913108      1.2595095548
| 62>     p 1
| 63>      1       0.7234803596      1.0000000000
| 64>     p 1
| 65>      1       0.3278598033      1.0000000000
| 66>     p 1
| 67>      1       0.0560000000      1.0000000000
| 68>     d 4
| 69>      1       8.6321692504      0.0580379198
| 70>      2       6.5898192302     -0.1340826234
| 71>      3       1.5808379663      0.4261153634
| 72>      4       0.7182783490      0.6598797561
| 73>     d 1
| 74>      1       0.3057185200      1.0000000000
| 75>     d 1
| 76>      1       0.1182707188      1.0000000000
| 77>   end
| 78>   NewAuxGTO 77
| 79>     S 1
| 80>      1 1310.72 1.0
| 81>     S 1
| 82>      1  655.36 1.0
| 83>     S 1
| 84>      1  327.68 1.0
| 85>     S 1
| 86>      1  163.84 1.0
| 87>     S 1
| 88>      1   81.82 1.0
| 89>     S 1
| 90>      1   40.96 1.0
| 91>     S 1
| 92>      1   20.48 1.0
| 93>     S 1
| 94>      1   10.24 1.0
| 95>     S 1
| 96>      1    5.12 1.0
| 97>     S 1
| 98>      1    2.56 1.0
| 99>     S 1
|100>      1    1.28 1.0
|101>     S 1
|102>      1    0.64 1.0
|103>     S 1
|104>      1    0.32 1.0
|105>     S 1
|106>      1    0.16 1.0
|107>     S 1
|108>      1    0.08 1.0
|109>     S 1
|110>      1    0.04 1.0
|111>     S 1
|112>      1    0.02 1.0
|113>     S 1
|114>      1    0.01 1.0
|115>   end
|116> end
|117>
|118> * xyz 0 4
|119> 77  0.0 0.0 0.0
|120> *
|121>
|122>
|123>                          ****END OF INPUT****

CARTESIAN COORDINATES (ANGSTROEM)
---------------------------------
  Ir     0.000000    0.000000    0.000000

 Total Charge           Charge          ....    0
 Multiplicity           Mult            ....    4
 Number of Electrons    NEL             ....   17
 Basis Dimension        Dim             ....   33

ORBITAL ENERGIES
----------------

  NO   OCC          E(Eh)            E(eV)
   0   2.0000      -5.022681      -136.6741
   1   2.0000      -3.128532       -85.1317
   2   2.0000      -3.123217       -84.9871
   3   2.0000      -3.120116       -84.9027
   4   2.0000      -1.062895       -28.9228
   5   1.4000      -1.066028       -29.0081
   6   1.4000      -0.709917       -19.3178
   7   1.4000      -0.316545        -8.6136
   8   1.4000      -0.308712        -8.4005
   9   1.4000      -0.304215        -8.2781
  10   0.0000      -0.620502       -16.8847
  11   0.0000      -0.612941       -16.6790
  12   0.0000      -0.599943       -16.3253
  13   0.0000       0.057461         1.5636
  14   0.0000       0.173785         4.7289

CleanUpVectors: The p-vectors have cracked symmetry
CleanUpVectors: The p-vectors have cracked symmetry
CleanUpVectors: The p-vectors have cracked symmetry
CleanUpVectors: The d-vectors have cracked symmetry at i=4
CleanUpVectors: The d-vectors have cracked symmetry at i=5
CleanUpVectors: The p-vectors have cracked symmetry
CleanUpVectors: The p-vectors have cracked symmetry
CleanUpVectors: The p-vectors have cracked symmetry
CleanUpVectors: The d-vectors have cracked symmetry at i=10
CleanUpVectors: The d-vectors have cracked symmetry at i=11
CleanUpVectors: The d-vectors have cracked symmetry at i=12
CleanUpVectors: The d-vectors have cracked symmetry at i=14
CleanUpVectors: The d-vectors have cracked symmetry at i=15
CleanUpVectors: The d-vectors have cracked symmetry at i=16
CleanUpVectors: The d-vectors have cracked symmetry at i=17
CleanUpVectors: The d-vectors have cracked symmetry at i=18
CleanUpVectors: The p-vectors have cracked symmetry
CleanUpVectors: The p-vectors have cracked symmetry
CleanUpVectors: The p-vectors have cracked symmetry
CleanUpVectors: The d-vectors have cracked symmetry at i=22
CleanUpVectors: The d-vectors have cracked symmetry at i=23
CleanUpVectors: The d-vectors have cracked symmetry at i=24
CleanUpVectors: The d-vectors have cracked symmetry at i=25
CleanUpVectors: The d-vectors have cracked symmetry at i=26
CleanUpVectors: The p-vectors have cracked symmetry
CleanUpVectors: The p-vectors have cracked symmetry
CleanUpVectors: The p-vectors have cracked symmetry
--------------------------
ATOM BASIS FOR ELEMENT Ir
--------------------------
 NewGTO Ir
 S 8
    1         30.000000000000        -0.315588867682
    2         27.000000000000         0.478809206415
    3         13.961973911000        -0.483263015389
    4          5.395697780200         0.922924262192
    5          1.214912872100        -1.026301389888
    6          0.558857437600        -0.342733850294
    7          0.140979743100         0.002001639952
    8          0.050021925000        -0.002104360129
 P 21
    1         15.902664143000        -0.129998244465
    2         14.415830698000         0.187393586287
    3          5.759760899100        -0.241833424614
    4          1.500891310800         0.442987797319
    5         15.902664143000        -0.063592249590
    6         14.415830698000         0.091668774142
    7          5.759760899100        -0.118299532125
    8          1.500891310800         0.216699776896
    9         15.902664143000         0.087289558615
   10         14.415830698000        -0.125828648698
   11          5.759760899100         0.162383215094
   12          1.500891310800        -0.297451780666
   13          0.723480359600         0.411227692632
   14          0.723480359600         0.201163440136
   15          0.723480359600        -0.276125911758
   16          0.327859803300         0.039375225077
   17          0.327859803300         0.019261484269
   18          0.327859803300        -0.026439172555
   19          0.056000000000         0.003624208485
   20          0.056000000000         0.001772882176
   21          0.056000000000        -0.002433537162
 D 21
    1         30.000000000000        -0.000006935671
    2         27.000000000000         0.000011691946
    3         13.961973911000        -0.000022820482
    4          5.395697780200         0.000119427553
    5          1.214912872100        -0.001101225045
    6          0.558857437600         0.001543275689
    7          0.140979743100        -0.001050307052
    8          0.050021925000        -0.005222849171
    9          8.632169250400        -0.004131440316
   10          6.589819230200         0.009544696949
   11          1.580837966300        -0.030333102872
   12          0.718278349000        -0.046973665453
   13          8.632169250400        -0.010679145435
   14          6.589819230200         0.024671591272
   15          1.580837966300        -0.078406461731
   16          0.718278349000        -0.121419787427
   17          8.632169250400        -0.029816050144
   18          6.589819230200         0.068882796567
   19          1.580837966300        -0.218909931404
   20          0.718278349000        -0.339002637667
   21          8.632169250400         0.034235307592
 S 8
    1         30.000000000000        -2.042463328756
    2         27.000000000000         3.098810971243
    3         13.961973911000        -3.127635630266
    4          5.395697780200         3.463379189928
    5          1.214912872100        -2.080414364111
    6          0.558857437600         1.389886947072
    7          0.140979743100        -0.448482066809
    8          0.050021925000         0.163401128458
 S 8
    1         30.000000000000        -1.905918056642
    2         27.000000000000         2.891645446486
    3         13.961973911000        -2.918543083929
    4          5.395697780200         1.399613516326
    5          1.214912872100        -0.664219581093
    6          0.558857437600         0.433819058094
    7          0.140979743100        -0.139262483553
    8          0.050021925000         0.050832719156
 P 21
    1         15.902664143000        -0.046343800399
    2         14.415830698000         0.066804986442
    3          5.759760899100        -0.086212548533
    4          1.500891310800         0.157923194598
    5         15.902664143000        -0.022670356312
    6         14.415830698000         0.032679513398
    7          5.759760899100        -0.042173261082
    8          1.500891310800         0.077252514050
    9         15.902664143000         0.031118342390
   10         14.415830698000        -0.044857357911
   11          5.759760899100         0.057888899496
   12          1.500891310800        -0.106040246991
   13          0.723480359600         0.398967841069
   14          0.723480359600         0.195166193452
   15          0.723480359600        -0.267893823425
   16          0.327859803300        -0.550535501537
   17          0.327859803300        -0.269309721574
   18          0.327859803300         0.369666537640
   19          0.056000000000        -0.555789166227
   20          0.056000000000        -0.271879697480
   21          0.056000000000         0.373194201216
 D 21
    1          8.632169250400         0.019160707023
    2          6.589819230200        -0.044266194804
    3          1.580837966300         0.140678226655
    4          0.718278349000         0.217853477877
    5          8.632169250400        -0.025419585287
    6          6.589819230200         0.058725824301
    7          1.580837966300        -0.186631013986
    8          0.718278349000        -0.289015695204
    9          8.632169250400        -0.013414122927
   10          6.589819230200         0.030990097488
   11          1.580837966300        -0.098486711538
   12          0.718278349000        -0.152515944674
   13          8.632169250400        -0.019101322194
   14          6.589819230200         0.044129000471
   15          1.580837966300        -0.140242222262
   16          0.718278349000        -0.217178284028
   17          8.632169250400         0.017773816109
   18          6.589819230200        -0.041062117664
   19          1.580837966300         0.130495650715
   20          0.718278349000         0.202084800414
   21          0.305718520000         0.136866488841
 D 21
    1          8.632169250400         0.007737934110
    2          6.589819230200        -0.017876631499
    3          1.580837966300         0.056812039728
    4          0.718278349000         0.087978791987
    5          8.632169250400        -0.010265543741
    6          6.589819230200         0.023716064259
    7          1.580837966300        -0.075369791283
    8          0.718278349000        -0.116717217357
    9          8.632169250400        -0.005417211339
   10          6.589819230200         0.012515160957
   11          1.580837966300        -0.039773254907
   12          0.718278349000        -0.061592629606
   13          8.632169250400        -0.007713951911
   14          6.589819230200         0.017821226408
   15          1.580837966300        -0.056635962026
   16          0.718278349000        -0.087706119089
   17          8.632169250400         0.007177846714
   18          6.589819230200        -0.016582684581
   19          1.580837966300         0.052699868835
   20          0.718278349000         0.081610708227
   21          0.305718520000         0.123574970399
 P 21
    1         15.902664143000        -0.045483488845
    2         14.415830698000         0.065564839945
    3          5.759760899100        -0.084612126233
    4          1.500891310800         0.154991558699
    5         15.902664143000        -0.002775568488
    6         14.415830698000         0.004001005822
    7          5.759760899100        -0.005163340747
    8          1.500891310800         0.009458150577
    9         15.902664143000        -0.069759527287
   10         14.415830698000         0.100558957929
   11          5.759760899100        -0.129772409256
   12          1.500891310800         0.237715666561
   13          0.723480359600         0.510415964617
   14          0.723480359600         0.031147445001
   15          0.723480359600         0.782841802941
   16          0.327859803300        -0.928516692514
   17          0.327859803300        -0.056661477338
   18          0.327859803300        -1.424096681957
   19          0.056000000000         0.479289790414
   20          0.056000000000         0.029248012251
   21          0.056000000000         0.735102562751
 D 21
    1          8.632169250400         0.028556517215
    2          6.589819230200        -0.065972949350
    3          1.580837966300         0.209662419886
    4          0.718278349000         0.324681995490
    5          8.632169250400        -0.037884553214
    6          6.589819230200         0.087523127961
    7          1.580837966300        -0.278149013880
    8          0.718278349000        -0.430739933838
    9          8.632169250400        -0.019991988386
   10          6.589819230200         0.046186670009
   11          1.580837966300        -0.146781508118
   12          0.718278349000        -0.227304983806
   13          8.632169250400        -0.028468011927
   14          6.589819230200         0.065768479217
   15          1.580837966300        -0.209012612605
   16          0.718278349000        -0.323675707740
   17          8.632169250400         0.026489538465
   18          6.589819230200        -0.061197693202
   19          1.580837966300         0.194486627847
   20          0.718278349000         0.301180852819
   21          0.305718520000        -0.789293078492
 P 21
    1         15.902664143000        -0.522048399245
    2         14.415830698000         0.752537252733
    3          5.759760899100        -0.971157362341
    4          1.500891310800         1.778955334566
    5         15.902664143000        -0.031857298658
    6         14.415830698000         0.045922569720
    7          5.759760899100        -0.059263566713
    8          1.500891310800         0.108558347223
    9         15.902664143000        -0.800682851780
   10         14.415830698000         1.154191209973
   11          5.759760899100        -1.489496084139
   12          1.500891310800         2.728442482594
   13          0.723480359600        -2.077984419606
   14          0.723480359600        -0.126806193367
   15          0.723480359600        -3.187073254992
   16          0.327859803300         0.939954559977
   17          0.327859803300         0.057359457831
   18          0.327859803300         1.441639316805
   19          0.056000000000        -0.134546069354
   20          0.056000000000        -0.008210492209
   21          0.056000000000        -0.206357745109
 end
  // -----------------------------------------------
  // The basis set
  // -----------------------------------------------
  BAS[ATNO] = new BFNGauss[NSH];
  // Basis function   1 L = s
  InitBFNGauss(BAS[ATNO][  0]);
  BAS[ATNO][  0].l  = 0;
  BAS[ATNO][  0].ng = 8;
  BAS[ATNO][  0].a[  0] =        30.000000000000;     BAS[ATNO][  0].d[  0] =         0.315588867682;
  BAS[ATNO][  0].a[  1] =        27.000000000000;     BAS[ATNO][  0].d[  1] =        -0.478809206415;
  BAS[ATNO][  0].a[  2] =        13.961973911000;     BAS[ATNO][  0].d[  2] =         0.483263015389;
  BAS[ATNO][  0].a[  3] =         5.395697780200;     BAS[ATNO][  0].d[  3] =        -0.922924262192;
  BAS[ATNO][  0].a[  4] =         1.214912872100;     BAS[ATNO][  0].d[  4] =         1.026301389888;
  BAS[ATNO][  0].a[  5] =         0.558857437600;     BAS[ATNO][  0].d[  5] =         0.342733850294;
  BAS[ATNO][  0].a[  6] =         0.140979743100;     BAS[ATNO][  0].d[  6] =        -0.002001639952;
  BAS[ATNO][  0].a[  7] =         0.050021925000;     BAS[ATNO][  0].d[  7] =         0.002104360129;

FINAL SINGLE POINT ENERGY      -101.760329396362

DIPOLE MOMENT
-------------
                                X             Y             Z
Electronic contribution:     -0.00000       0.00000       0.00000
Nuclear contribution   :      0.00000       0.00000       0.00000
                        -----------------------------------------
Total Dipole Moment    :     -0.00000       0.00000       0.00000
                        -----------------------------------------
Magnitude (a.u.)       :      0.00000
Magnitude (Debye)      :      0.00000

Rotational constants in cm-1:     0.000000     0.000000     0.000000
Rotational constants in MHz :     0.000000     0.000000     0.000000

                             ****ORCA TERMINATED NORMALLY****
TOTAL RUN TIME: 0 days 0 hours 0 minutes 1 seconds 87 msec
