                         Program Version 4.2.0 -  RELEASE  -
|  1> #
|  2> # 77_Ir CCSD(T)/Def2-TZVP
|  3> #
|  4> ! CCSD(T) Def2-TZVP tightscf
|  5>
|  6> *xyz 0 4
|  7>  Ir 0.0 0.0 0.0
|  8> *
|  9>
| 10> %maxcore 5000
| 11>
| 12> %pal
| 13> nprocs 24
| 14> end
| 15>
| 16> %method
| 17> NewNCore Ir 60 end
| 18> end
| 19>
| 20>
| 21>                          ****END OF INPUT****

CARTESIAN COORDINATES (ANGSTROEM)
---------------------------------
  Ir     0.000000    0.000000    0.000000

 Total Charge           Charge          ....    0
 Multiplicity           Mult            ....    4
 Number of Electrons    NEL             ....   17
 Basis Dimension        Dim             ....   40

ORBITAL ENERGIES
----------------
                 SPIN UP ORBITALS
  NO   OCC          E(Eh)            E(eV)
   0   1.0000      -4.207311      -114.4868
   1   1.0000      -2.417564       -65.7853
   2   1.0000      -2.417564       -65.7852
   3   1.0000      -2.417563       -65.7852
   4   1.0000      -0.428504       -11.6602
   5   1.0000      -0.428504       -11.6602
   6   1.0000      -0.393537       -10.7087
   7   1.0000      -0.393537       -10.7087
   8   1.0000      -0.393536       -10.7087
   9   1.0000      -0.291254        -7.9254
  10   0.0000       0.060464         1.6453
  11   0.0000       0.060464         1.6453
  12   0.0000       0.060465         1.6453
  13   0.0000       0.249693         6.7945
  14   0.0000       0.392383        10.6773

                 SPIN DOWN ORBITALS
  NO   OCC          E(Eh)            E(eV)
   0   1.0000      -4.104384      -111.6860
   1   1.0000      -2.277874       -61.9841
   2   1.0000      -2.277874       -61.9841
   3   1.0000      -2.277874       -61.9841
   4   1.0000      -0.337605        -9.1867
   5   1.0000      -0.337605        -9.1867
   6   1.0000      -0.337605        -9.1867
   7   0.0000       0.010226         0.2783
   8   0.0000       0.111196         3.0258
   9   0.0000       0.111196         3.0258
  10   0.0000       0.111197         3.0258
  11   0.0000       0.155879         4.2417

E(0)                                       ...   -103.437133042
E(0)                                       ...   -103.437133042
E(CORR)                                    ...     -0.317018222
E(TOT)                                     ...   -103.754151263
E(CCSD(T))                                 ...   -103.761346514

MULLIKEN ATOMIC CHARGES AND SPIN DENSITIES
------------------------------------------
   0 Ir:   -0.000000    3.000000
Sum of atomic charges       :   -0.0000000

LOEWDIN ATOMIC CHARGES AND SPIN DENSITIES
-----------------------------------------
   0 Ir:   -0.000000    3.000000

FINAL SINGLE POINT ENERGY      -103.761346514181

DIPOLE MOMENT
-------------
                                X             Y             Z
Electronic contribution:      0.00000       0.00000       0.00000
Nuclear contribution   :      0.00000       0.00000       0.00000
                        -----------------------------------------
Total Dipole Moment    :      0.00000       0.00000       0.00000
                        -----------------------------------------
Magnitude (a.u.)       :      0.00000
Magnitude (Debye)      :      0.00000

Rotational constants in cm-1:     0.000000     0.000000     0.000000
Rotational constants in MHz :     0.000000     0.000000     0.000000

                             ****ORCA TERMINATED NORMALLY****
TOTAL RUN TIME: 0 days 0 hours 0 minutes 17 seconds 239 msec
