                         Program Version 4.2.0 -  RELEASE  -
|  1> # input to generate an atomic fitting density for Pt
|  2> # this file is use internally by ORCA
|  3> #
|  4> # atomic ground state (S=3): 1s2 2s2 2p6 3s2 3p6 4s2 3d10 4p6 5s2 4d10 5p6 6s2 4f14 5d8
|  5> #
|  6> ! RHF AllowRHF def2-SVP def2/J  NoMulliken NoLoewdin NoMayer NoPrintMOs
|  7>
|  8> %output print[p_atomdensfit] 2 end
|  9>
| 10> %scf
| 11>   guess hcore
| 12>   maxiter 1000
| 13>   maxdisk 500000
| 14>   SCFMode Conventional
| 15>   lshift 1.000000
| 16>   hftyp rohf
| 17>   rohf_case sahf
| 18>   rohf_numop   2
| 19>   rohf_norb[1] 5
| 20>   rohf_nel[1]  8
| 21> end
| 22>
| 23> %basis
| 24>   NewECP 78
| 25>     N_core 60
| 26>     lmax f
| 27>     s 3
| 28>       1      13.4286513000    579.2238609000  2
| 29>       2       6.7143256000     29.6694906000  2
| 30>       3       3.3095686000    -24.3143757000  2
| 31>     p 3
| 32>       1      10.3659442000    280.8607742000  2
| 33>       2       5.1829721000     26.7453820000  2
| 34>       3       3.3095686000    -24.3143757000  2
| 35>     d 3
| 36>       1       7.6004795000    120.3964443000  2
| 37>       2       3.8002397000     15.8109206000  2
| 38>       3       3.3095686000    -24.3143757000  2
| 39>     f 1
| 40>       1       3.3095686000     24.3143757000  2
| 41>   end
| 42>   NewGTO 78
| 43>     s 3
| 44>      1      30.0000000000      0.9054938287
| 45>      2      27.0000000000     -1.4084167449
| 46>      3      14.4083185640      1.4796209021
| 47>     s 1
| 48>      1       5.5335788010      1.0000000000
| 49>     s 1
| 50>      1       1.2986438223      1.0000000000
| 51>     s 1
| 52>      1       0.5875939311      1.0000000000
| 53>     s 1
| 54>      1       0.1384558726      1.0000000000
| 55>     s 1
| 56>      1       0.0492044599      1.0000000000
| 57>     p 4
| 58>      1      15.5000000000     -0.3478541841
| 59>      2      14.0000000000      0.5294237528
| 60>      3       6.1161212339     -0.6889598464
| 61>      4       1.5715586385      1.2534233823
| 62>     p 1
| 63>      1       0.7513251078      1.0000000000
| 64>     p 1
| 65>      1       0.3330646681      1.0000000000
| 66>     p 1
| 67>      1       0.0570000000      1.0000000000
| 68>     d 4
| 69>      1       8.3207937611      0.1635155571
| 70>      2       7.4207226520     -0.2345009785
| 71>      3       1.6570410639      0.4367423536
| 72>      4       0.7394356996      0.6506097943
| 73>     d 1
| 74>      1       0.3051085601      1.0000000000
| 75>     d 1
| 76>      1       0.1135040527      1.0000000000
| 77>   end
| 78>   NewAuxGTO 78
| 79>     S 1
| 80>      1 1310.72 1.0
| 81>     S 1
| 82>      1  655.36 1.0
| 83>     S 1
| 84>      1  327.68 1.0
| 85>     S 1
| 86>      1  163.84 1.0
| 87>     S 1
| 88>      1   81.82 1.0
| 89>     S 1
| 90>      1   40.96 1.0
| 91>     S 1
| 92>      1   20.48 1.0
| 93>     S 1
| 94>      1   10.24 1.0
| 95>     S 1
| 96>      1    5.12 1.0
| 97>     S 1
| 98>      1    2.56 1.0
| 99>     S 1
|100>      1    1.28 1.0
|101>     S 1
|102>      1    0.64 1.0
|103>     S 1
|104>      1    0.32 1.0
|105>     S 1
|106>      1    0.16 1.0
|107>     S 1
|108>      1    0.08 1.0
|109>     S 1
|110>      1    0.04 1.0
|111>     S 1
|112>      1    0.02 1.0
|113>     S 1
|114>      1    0.01 1.0
|115>   end
|116> end
|117>
|118> * xyz 0 3
|119> 78  0.0 0.0 0.0
|120> *
|121>
|122>
|123>                          ****END OF INPUT****

CARTESIAN COORDINATES (ANGSTROEM)
---------------------------------
  Pt     0.000000    0.000000    0.000000

 Total Charge           Charge          ....    0
 Multiplicity           Mult            ....    3
 Number of Electrons    NEL             ....   18
 Basis Dimension        Dim             ....   33

ORBITAL ENERGIES
----------------

  NO   OCC          E(Eh)            E(eV)
   0   2.0000      -4.504508      -122.5739
   1   2.0000      -2.597969       -70.6943
   2   2.0000      -2.594006       -70.5865
   3   2.0000      -2.592536       -70.5465
   4   2.0000      -0.458928       -12.4881
   5   1.6000      -0.476931       -12.9779
   6   1.6000      -0.474494       -12.9116
   7   1.6000      -0.470811       -12.8114
   8   1.6000      -0.460850       -12.5404
   9   1.6000      -0.307934        -8.3793
  10   0.0000       0.025642         0.6978
  11   0.0000       0.028397         0.7727
  12   0.0000       0.029415         0.8004
  13   0.0000       0.189075         5.1450
  14   0.0000       0.326115         8.8740

CleanUpVectors: The p-vectors have cracked symmetry
CleanUpVectors: The p-vectors have cracked symmetry
CleanUpVectors: The p-vectors have cracked symmetry
CleanUpVectors: The d-vectors have cracked symmetry at i=4
CleanUpVectors: The d-vectors have cracked symmetry at i=5
CleanUpVectors: The d-vectors have cracked symmetry at i=6
CleanUpVectors: The d-vectors have cracked symmetry at i=7
CleanUpVectors: The d-vectors have cracked symmetry at i=8
CleanUpVectors: The p-vectors have cracked symmetry
CleanUpVectors: The p-vectors have cracked symmetry
CleanUpVectors: The p-vectors have cracked symmetry
CleanUpVectors: The d-vectors have cracked symmetry at i=14
CleanUpVectors: The d-vectors have cracked symmetry at i=15
CleanUpVectors: The d-vectors have cracked symmetry at i=16
CleanUpVectors: The d-vectors have cracked symmetry at i=17
CleanUpVectors: The d-vectors have cracked symmetry at i=18
CleanUpVectors: The p-vectors have cracked symmetry
CleanUpVectors: The p-vectors have cracked symmetry
CleanUpVectors: The p-vectors have cracked symmetry
CleanUpVectors: The d-vectors have cracked symmetry at i=22
CleanUpVectors: The d-vectors have cracked symmetry at i=23
CleanUpVectors: The d-vectors have cracked symmetry at i=24
CleanUpVectors: The d-vectors have cracked symmetry at i=25
CleanUpVectors: The d-vectors have cracked symmetry at i=26
CleanUpVectors: The p-vectors have cracked symmetry
CleanUpVectors: The p-vectors have cracked symmetry
CleanUpVectors: The p-vectors have cracked symmetry
--------------------------
ATOM BASIS FOR ELEMENT Pt
--------------------------
 NewGTO Pt
 S 8
    1         30.000000000000        -0.271403961127
    2         27.000000000000         0.422145211119
    3         14.408318564000        -0.443487256421
    4          5.533578801000         0.885120386040
    5          1.298643822300        -0.961857625489
    6          0.587593931100        -0.397357966627
    7          0.138455872600        -0.012002589546
    8          0.049204459900        -0.000586081154
 P 21
    1         15.500000000000        -0.005613128518
    2         14.000000000000         0.008543015150
    3          6.116121233900        -0.011117359912
    4          1.571558638500         0.020225792455
    5         15.500000000000         0.034994790534
    6         14.000000000000        -0.053261033444
    7          6.116121233900         0.069310666978
    8          1.571558638500        -0.126096769046
    9         15.500000000000        -0.153377386196
   10         14.000000000000         0.233435833479
   11          6.116121233900        -0.303779184684
   12          1.571558638500         0.552664912373
   13          0.751325107800         0.017486077930
   14          0.751325107800        -0.109016145357
   15          0.751325107800         0.477802872167
   16          0.333064668100         0.004131741544
   17          0.333064668100        -0.025759151858
   18          0.333064668100         0.112898843578
   19          0.057000000000         0.000113024792
   20          0.057000000000        -0.000704647848
   21          0.057000000000         0.003088375254
 D 21
    1         30.000000000000         0.000003341432
    2         27.000000000000        -0.000005774785
    3         14.408318564000         0.000011368563
    4          5.533578801000        -0.000062772791
    5          1.298643822300         0.000520797928
    6          0.587593931100        -0.000418822323
    7          0.138455872600        -0.003590845758
    8          0.049204459900         0.011518958588
    9          8.320793761100         0.002774692824
   10          7.420722652000        -0.003979243283
   11          1.657041063900         0.007411073882
   12          0.739435699600         0.011040186998
   13          8.320793761100        -0.110746893481
   14          7.420722652000         0.158824367220
   15          1.657041063900        -0.295799737777
   16          0.739435699600        -0.440649286616
   17          8.320793761100        -0.026024740750
   18          7.420722652000         0.037322608804
   19          1.657041063900        -0.069510857122
   20          0.739435699600        -0.103549481934
   21          8.320793761100         0.012512904254
 S 8
    1         30.000000000000        -1.903168345127
    2         27.000000000000         2.960212516842
    3         14.408318564000        -3.109869525790
    4          5.533578801000         3.500144898737
    5          1.298643822300        -2.128543907026
    6          0.587593931100         1.355151632715
    7          0.138455872600        -0.421423647431
    8          0.049204459900         0.159239609462
 S 8
    1         30.000000000000        -1.799230633756
    2         27.000000000000         2.798546464041
    3         14.408318564000        -2.940030256447
    4          5.533578801000         1.425739513308
    5          1.298643822300        -0.674642093925
    6          0.587593931100         0.418484697919
    7          0.138455872600        -0.129713351166
    8          0.049204459900         0.049150418613
 D 21
    1          8.320793761100        -0.005153924964
    2          7.420722652000         0.007391348375
    3          1.657041063900        -0.013765890898
    4          0.739435699600        -0.020506880937
    5          8.320793761100         0.015761815170
    6          7.420722652000        -0.022604338975
    7          1.657041063900         0.042099066148
    8          0.739435699600         0.062714468933
    9          8.320793761100        -0.081835668796
   10          7.420722652000         0.117362193233
   11          1.657041063900        -0.218579217980
   12          0.739435699600        -0.325614813576
   13          8.320793761100         0.031807022495
   14          7.420722652000        -0.045615096389
   15          1.657041063900         0.084955059395
   16          0.739435699600         0.126556522999
   17          8.320793761100        -0.072934679313
   18          7.420722652000         0.104597103596
   19          1.657041063900        -0.194805094189
   20          0.739435699600        -0.290198789319
   21          0.305108560100        -0.015301828827
 P 21
    1         15.500000000000         0.019482120378
    2         14.000000000000        -0.029651209484
    3          6.116121233900         0.038586279184
    4          1.571558638500        -0.070199946800
    5         15.500000000000        -0.019792715378
    6         14.000000000000         0.030123925865
    7          6.116121233900        -0.039201443508
    8          1.571558638500         0.071319114124
    9         15.500000000000        -0.005228916688
   10         14.000000000000         0.007958256139
   11          6.116121233900        -0.010356390128
   12          1.571558638500         0.018841361526
   13          0.751325107800        -0.106245870349
   14          0.751325107800         0.107939702208
   15          0.751325107800         0.028515931209
   16          0.333064668100         0.038188076626
   17          0.333064668100        -0.038796892579
   18          0.333064668100        -0.010249514287
   19          0.057000000000         0.685873999967
   20          0.057000000000        -0.696808591858
   21          0.057000000000        -0.184085609512
 D 21
    1         30.000000000000         0.000001984339
    2         27.000000000000        -0.000003429407
    3         14.408318564000         0.000006751321
    4          5.533578801000        -0.000037800705
    5          1.298643822300         0.000457005218
    6          0.587593931100        -0.001192277016
    7          0.138455872600         0.007857006947
    8          0.049204459900        -0.024707118804
    9          8.320793761100         0.000937544499
   10          7.420722652000        -0.001344551591
   11          1.657041063900         0.002504137212
   12          0.739435699600         0.003730382874
   13          8.320793761100        -0.035074725594
   14          7.420722652000         0.050301375712
   15          1.657041063900        -0.093682940508
   16          0.739435699600        -0.139558341780
   17          8.320793761100        -0.008249789180
   18          7.420722652000         0.011831190068
   19          1.657041063900        -0.022034798443
   20          0.739435699600        -0.032824972354
   21          8.320793761100         0.004055042436
 P 21
    1         15.500000000000         0.063713649098
    2         14.000000000000        -0.096970284539
    3          6.116121233900         0.126191225814
    4          1.571558638500        -0.229579465194
    5         15.500000000000        -0.064729408187
    6         14.000000000000         0.098516239750
    7          6.116121233900        -0.128203037826
    8          1.571558638500         0.233239551089
    9         15.500000000000        -0.017100467329
   10         14.000000000000         0.026026404171
   11          6.116121233900        -0.033869178187
   12          1.571558638500         0.061618133626
   13          0.751325107800        -0.718449666179
   14          0.751325107800         0.729903597769
   15          0.751325107800         0.192828777160
   16          0.333064668100         1.239471376340
   17          0.333064668100        -1.259231731200
   18          0.333064668100        -0.332668746435
   19          0.057000000000        -0.393837718866
   20          0.057000000000         0.400116502895
   21          0.057000000000         0.105704337135
 D 21
    1          8.320793761100        -0.007708495225
    2          7.420722652000         0.011054909423
    3          1.657041063900        -0.020589027777
    4          0.739435699600        -0.030671225304
    5          8.320793761100         0.032267902121
    6          7.420722652000        -0.046276053213
    7          1.657041063900         0.086186047175
    8          0.739435699600         0.128390310584
    9          8.320793761100        -0.120414395278
   10          7.420722652000         0.172688727720
   11          1.657041063900        -0.321621179865
   12          0.739435699600        -0.479115176144
   13          8.320793761100        -0.060828096792
   14          7.420722652000         0.087234807935
   15          1.657041063900        -0.162468982334
   16          0.739435699600        -0.242028075146
   17          8.320793761100         0.116100622123
   18          7.420722652000        -0.166502258104
   19          1.657041063900         0.310099294891
   20          0.739435699600         0.461951163652
   21          0.305108560100         0.070061937402
 P 21
    1         15.500000000000         0.621144671061
    2         14.000000000000        -0.945363769695
    3          6.116121233900         1.230238866535
    4          1.571558638500        -2.238171308802
    5         15.500000000000        -0.631047311368
    6         14.000000000000         0.960435294585
    7          6.116121233900        -1.249852031638
    8          1.571558638500         2.273853504027
    9         15.500000000000        -0.166712538165
   10         14.000000000000         0.253731539329
   11          6.116121233900        -0.330190780898
   12          1.571558638500         0.600715480823
   13          0.751325107800         2.598038779415
   14          0.751325107800        -2.639458185770
   15          0.751325107800        -0.697302350556
   16          0.333064668100        -1.164164160798
   17          0.333064668100         1.182723925503
   18          0.333064668100         0.312456616194
   19          0.057000000000         0.170770834549
   20          0.057000000000        -0.173493359958
   21          0.057000000000        -0.045834152008
 end
  // -----------------------------------------------
  // The basis set
  // -----------------------------------------------
  BAS[ATNO] = new BFNGauss[NSH];
  // Basis function   1 L = s
  InitBFNGauss(BAS[ATNO][  0]);
  BAS[ATNO][  0].l  = 0;
  BAS[ATNO][  0].ng = 8;
  BAS[ATNO][  0].a[  0] =        30.000000000000;     BAS[ATNO][  0].d[  0] =         0.271403961127;
  BAS[ATNO][  0].a[  1] =        27.000000000000;     BAS[ATNO][  0].d[  1] =        -0.422145211119;
  BAS[ATNO][  0].a[  2] =        14.408318564000;     BAS[ATNO][  0].d[  2] =         0.443487256421;
  BAS[ATNO][  0].a[  3] =         5.533578801000;     BAS[ATNO][  0].d[  3] =        -0.885120386040;
  BAS[ATNO][  0].a[  4] =         1.298643822300;     BAS[ATNO][  0].d[  4] =         0.961857625489;
  BAS[ATNO][  0].a[  5] =         0.587593931100;     BAS[ATNO][  0].d[  5] =         0.397357966627;
  BAS[ATNO][  0].a[  6] =         0.138455872600;     BAS[ATNO][  0].d[  6] =         0.012002589546;
  BAS[ATNO][  0].a[  7] =         0.049204459900;     BAS[ATNO][  0].d[  7] =         0.000586081154;

FINAL SINGLE POINT ENERGY      -118.366211643032

DIPOLE MOMENT
-------------
                                X             Y             Z
Electronic contribution:      0.00000       0.00000       0.00000
Nuclear contribution   :      0.00000       0.00000       0.00000
                        -----------------------------------------
Total Dipole Moment    :      0.00000       0.00000       0.00000
                        -----------------------------------------
Magnitude (a.u.)       :      0.00000
Magnitude (Debye)      :      0.00000

Rotational constants in cm-1:     0.000000     0.000000     0.000000
Rotational constants in MHz :     0.000000     0.000000     0.000000

                             ****ORCA TERMINATED NORMALLY****
TOTAL RUN TIME: 0 days 0 hours 0 minutes 1 seconds 108 msec
