                         Program Version 4.2.0 -  RELEASE  -
|  1> #
|  2> # 78_Pt CCSD(T)/Def2-TZVP
|  3> #
|  4> ! CCSD(T) Def2-TZVP tightscf
|  5>
|  6> *xyz 0 3
|  7>  Pt 0.0 0.0 0.0
|  8> *
|  9>
| 10> %maxcore 5000
| 11>
| 12> %pal
| 13> nprocs 24
| 14> end
| 15>
| 16> %method
| 17> NewNCore Pt 60 end
| 18> end
| 19>
| 20>
| 21>                          ****END OF INPUT****

CARTESIAN COORDINATES (ANGSTROEM)
---------------------------------
  Pt     0.000000    0.000000    0.000000

 Total Charge           Charge          ....    0
 Multiplicity           Mult            ....    3
 Number of Electrons    NEL             ....   18
 Basis Dimension        Dim             ....   40

ORBITAL ENERGIES
----------------
                 SPIN UP ORBITALS
  NO   OCC          E(Eh)            E(eV)
   0   1.0000      -4.462968      -121.4435
   1   1.0000      -2.591099       -70.5074
   2   1.0000      -2.590952       -70.5034
   3   1.0000      -2.533301       -68.9346
   4   1.0000      -0.480736       -13.0815
   5   1.0000      -0.443489       -12.0680
   6   1.0000      -0.420664       -11.4469
   7   1.0000      -0.420611       -11.4454
   8   1.0000      -0.415191       -11.2979
   9   1.0000      -0.290298        -7.8994
  10   0.0000       0.060488         1.6460
  11   0.0000       0.060513         1.6466
  12   0.0000       0.071892         1.9563
  13   0.0000       0.238742         6.4965
  14   0.0000       0.367053         9.9880

                 SPIN DOWN ORBITALS
  NO   OCC          E(Eh)            E(eV)
   0   1.0000      -4.405397      -119.8770
   1   1.0000      -2.519396       -68.5563
   2   1.0000      -2.487008       -67.6749
   3   1.0000      -2.486920       -67.6725
   4   1.0000      -0.419120       -11.4048
   5   1.0000      -0.382650       -10.4124
   6   1.0000      -0.382555       -10.4099
   7   1.0000      -0.370283       -10.0759
   8   0.0000       0.001602         0.0436
   9   0.0000       0.109739         2.9862
  10   0.0000       0.109749         2.9864
  11   0.0000       0.112180         3.0526
  12   0.0000       0.112684         3.0663

E(0)                                       ...   -118.397592885
E(0)                                       ...   -118.397592885
E(CORR)                                    ...     -0.342227678
E(TOT)                                     ...   -118.739820563
E(CCSD(T))                                 ...   -118.747544500

MULLIKEN ATOMIC CHARGES AND SPIN DENSITIES
------------------------------------------
   0 Pt:   -0.000000    2.000000
Sum of atomic charges       :   -0.0000000

LOEWDIN ATOMIC CHARGES AND SPIN DENSITIES
-----------------------------------------
   0 Pt:   -0.000000    2.000000

FINAL SINGLE POINT ENERGY      -118.747544500110

DIPOLE MOMENT
-------------
                                X             Y             Z
Electronic contribution:     -0.00000       0.00000      -0.00000
Nuclear contribution   :      0.00000       0.00000       0.00000
                        -----------------------------------------
Total Dipole Moment    :     -0.00000       0.00000      -0.00000
                        -----------------------------------------
Magnitude (a.u.)       :      0.00000
Magnitude (Debye)      :      0.00000

Rotational constants in cm-1:     0.000000     0.000000     0.000000
Rotational constants in MHz :     0.000000     0.000000     0.000000

                             ****ORCA TERMINATED NORMALLY****
TOTAL RUN TIME: 0 days 0 hours 0 minutes 37 seconds 446 msec
