                         Program Version 4.2.0 -  RELEASE  -
|  1> #
|  2> # 79_Au CCSD(T)/Def2-TZVP
|  3> #
|  4> ! CCSD(T) Def2-TZVP tightscf
|  5>
|  6> *xyz 0 2
|  7>  Au 0.0 0.0 0.0
|  8> *
|  9>
| 10> %maxcore 5000
| 11>
| 12> %pal
| 13> nprocs 24
| 14> end
| 15>
| 16> %method
| 17> NewNCore Au 60 end
| 18> end
| 19>
| 20>
| 21>                          ****END OF INPUT****

CARTESIAN COORDINATES (ANGSTROEM)
---------------------------------
  Au     0.000000    0.000000    0.000000

 Total Charge           Charge          ....    0
 Multiplicity           Mult            ....    2
 Number of Electrons    NEL             ....   19
 Basis Dimension        Dim             ....   40

ORBITAL ENERGIES
----------------
                 SPIN UP ORBITALS
  NO   OCC          E(Eh)            E(eV)
   0   1.0000      -4.688687      -127.5857
   1   1.0000      -2.724242       -74.1304
   2   1.0000      -2.724242       -74.1304
   3   1.0000      -2.724242       -74.1304
   4   1.0000      -0.457685       -12.4543
   5   1.0000      -0.457685       -12.4543
   6   1.0000      -0.457685       -12.4543
   7   1.0000      -0.457685       -12.4543
   8   1.0000      -0.457685       -12.4543
   9   1.0000      -0.291992        -7.9455
  10   0.0000       0.054783         1.4907
  11   0.0000       0.054783         1.4907
  12   0.0000       0.054783         1.4907
  13   0.0000       0.239147         6.5075
  14   0.0000       0.412956        11.2371

                 SPIN DOWN ORBITALS
  NO   OCC          E(Eh)            E(eV)
   0   1.0000      -4.687343      -127.5491
   1   1.0000      -2.728293       -74.2406
   2   1.0000      -2.728293       -74.2406
   3   1.0000      -2.728293       -74.2406
   4   1.0000      -0.449149       -12.2220
   5   1.0000      -0.449149       -12.2220
   6   1.0000      -0.449149       -12.2220
   7   1.0000      -0.449149       -12.2220
   8   1.0000      -0.449149       -12.2220
   9   0.0000      -0.004692        -0.1277
  10   0.0000       0.089476         2.4348
  11   0.0000       0.089476         2.4348
  12   0.0000       0.089476         2.4348
  13   0.0000       0.282653         7.6914

E(0)                                       ...   -134.789816323
E(0)                                       ...   -134.789816323
E(CORR)                                    ...     -0.366143489
E(TOT)                                     ...   -135.155959811
E(CCSD(T))                                 ...   -135.163565144

MULLIKEN ATOMIC CHARGES AND SPIN DENSITIES
------------------------------------------
   0 Au:   -0.000000    1.000000
Sum of atomic charges       :   -0.0000000

LOEWDIN ATOMIC CHARGES AND SPIN DENSITIES
-----------------------------------------
   0 Au:   -0.000000    1.000000

FINAL SINGLE POINT ENERGY      -135.163565143965

DIPOLE MOMENT
-------------
                                X             Y             Z
Electronic contribution:     -0.00000      -0.00000      -0.00000
Nuclear contribution   :      0.00000       0.00000       0.00000
                        -----------------------------------------
Total Dipole Moment    :     -0.00000      -0.00000      -0.00000
                        -----------------------------------------
Magnitude (a.u.)       :      0.00000
Magnitude (Debye)      :      0.00000

Rotational constants in cm-1:     0.000000     0.000000     0.000000
Rotational constants in MHz :     0.000000     0.000000     0.000000

                             ****ORCA TERMINATED NORMALLY****
TOTAL RUN TIME: 0 days 0 hours 0 minutes 16 seconds 452 msec
