                         Program Version 4.2.0 -  RELEASE  -
|  1> #
|  2> # 80_Hg CCSD(T)/Def2-TZVP
|  3> #
|  4> ! CCSD(T) Def2-TZVP tightscf
|  5>
|  6> *xyz 0 1
|  7>  Hg 0.0 0.0 0.0
|  8> *
|  9>
| 10> %maxcore 5000
| 11>
| 12> %pal
| 13> nprocs 24
| 14> end
| 15>
| 16> %method
| 17> NewNCore Hg 60 end
| 18> end
| 19>
| 20>
| 21>                          ****END OF INPUT****

CARTESIAN COORDINATES (ANGSTROEM)
---------------------------------
  Hg     0.000000    0.000000    0.000000

 Total Charge           Charge          ....    0
 Multiplicity           Mult            ....    1
 Number of Electrons    NEL             ....   20
 Basis Dimension        Dim             ....   43

ORBITAL ENERGIES
----------------

  NO   OCC          E(Eh)            E(eV)
   0   2.0000      -5.043568      -137.2424
   1   2.0000      -3.031607       -82.4942
   2   2.0000      -3.031607       -82.4942
   3   2.0000      -3.031607       -82.4942
   4   2.0000      -0.604049       -16.4370
   5   2.0000      -0.604049       -16.4370
   6   2.0000      -0.604049       -16.4370
   7   2.0000      -0.604049       -16.4370
   8   2.0000      -0.604049       -16.4370
   9   2.0000      -0.326821        -8.8933
  10   0.0000       0.048796         1.3278
  11   0.0000       0.048796         1.3278
  12   0.0000       0.048796         1.3278
  13   0.0000       0.249189         6.7808
  14   0.0000       0.249189         6.7808

E(0)                                       ...   -152.554326940
E(0)                                       ...   -152.554326940
E(CORR)                                    ...     -0.414151717
E(TOT)                                     ...   -152.968478658
E(CCSD(T))                                 ...   -152.978400476

MULLIKEN ATOMIC CHARGES
-----------------------
   0 Hg:    0.000000
Sum of atomic charges:    0.0000000

LOEWDIN ATOMIC CHARGES
----------------------
   0 Hg:    0.000000

FINAL SINGLE POINT ENERGY      -152.978400475998

DIPOLE MOMENT
-------------
                                X             Y             Z
Electronic contribution:      0.00000       0.00000       0.00000
Nuclear contribution   :      0.00000       0.00000       0.00000
                        -----------------------------------------
Total Dipole Moment    :      0.00000       0.00000       0.00000
                        -----------------------------------------
Magnitude (a.u.)       :      0.00000
Magnitude (Debye)      :      0.00000

Rotational constants in cm-1:     0.000000     0.000000     0.000000
Rotational constants in MHz :     0.000000     0.000000     0.000000

                             ****ORCA TERMINATED NORMALLY****
TOTAL RUN TIME: 0 days 0 hours 0 minutes 7 seconds 726 msec
