                         Program Version 4.2.0 -  RELEASE  -
|  1> # input to generate an atomic fitting density for Hg
|  2> # this file is use internally by ORCA
|  3> #
|  4> # atomic ground state (S=1): 1s2 2s2 2p6 3s2 3p6 4s2 3d10 4p6 5s2 4d10 5p6 6s2 4f14 5d10
|  5> #
|  6> ! RHF AllowRHF def2-SVP def2/J  NoMulliken NoLoewdin NoMayer NoPrintMOs
|  7>
|  8> %output print[p_atomdensfit] 2 end
|  9>
| 10> %scf
| 11>   guess hcore
| 12>   maxiter 1000
| 13>   maxdisk 500000
| 14>   SCFMode Conventional
| 15>   lshift 1.000000
| 16>   hftyp rohf
| 17>   rohf_case sahf
| 18>   rohf_numop   2
| 19>   rohf_norb[1] 5
| 20>   rohf_nel[1]  10
| 21> end
| 22>
| 23> %basis
| 24>   NewECP 80
| 25>     N_core 60
| 26>     lmax f
| 27>     s 3
| 28>       1      12.9815487000    275.7372117000  2
| 29>       2       6.4907744000     49.0892125000  2
| 30>       3       3.8857911000    -30.3649964000  2
| 31>     p 3
| 32>       1      10.5380958000    241.5400740000  2
| 33>       2       5.2690479000     27.3965908000  2
| 34>       3       3.8857911000    -30.3649964000  2
| 35>     d 3
| 36>       1       8.1017205000    127.8670076000  2
| 37>       2       4.0508603000     16.6083115000  2
| 38>       3       3.8857911000    -30.3649964000  2
| 39>     f 1
| 40>       1       3.8857911000     30.3649964000  2
| 41>   end
| 42>   NewGTO 80
| 43>     s 3
| 44>      1      48.0137869900      0.0289798220
| 45>      2      21.2398750950     -0.8656835524
| 46>      3      15.8761008790      1.8193112096
| 47>     s 1
| 48>      1       5.5180531820      1.0000000000
| 49>     s 1
| 50>      1       1.5099145479      1.0000000000
| 51>     s 1
| 52>      1       0.7068348216      1.0000000000
| 53>     s 1
| 54>      1       0.1626626558      1.0000000000
| 55>     s 1
| 56>      1       0.0569605891      1.0000000000
| 57>     p 4
| 58>      1      17.5000000000     -0.2060509577
| 59>      2      15.2525948550      0.3652916199
| 60>      3       6.4404715169     -0.7215344055
| 61>      4       1.8180159920      1.2955770587
| 62>     p 1
| 63>      1       0.9006798180      1.0000000000
| 64>     p 1
| 65>      1       0.4130454012      1.0000000000
| 66>     p 1
| 67>      1       0.1184570265      1.0000000000
| 68>     p 1
| 69>      1       0.0360876193      1.0000000000
| 70>     d 4
| 71>      1      10.0281977010      0.0565424472
| 72>      2       7.5920661493     -0.1342297359
| 73>      3       1.9144256118      0.4413812282
| 74>      4       0.8864155210      0.6453713071
| 75>     d 1
| 76>      1       0.3815423532      1.0000000000
| 77>     d 1
| 78>      1       0.1488074009      1.0000000000
| 79>   end
| 80>   NewAuxGTO 80
| 81>     S 1
| 82>      1 1310.72 1.0
| 83>     S 1
| 84>      1  655.36 1.0
| 85>     S 1
| 86>      1  327.68 1.0
| 87>     S 1
| 88>      1  163.84 1.0
| 89>     S 1
| 90>      1   81.82 1.0
| 91>     S 1
| 92>      1   40.96 1.0
| 93>     S 1
| 94>      1   20.48 1.0
| 95>     S 1
| 96>      1   10.24 1.0
| 97>     S 1
| 98>      1    5.12 1.0
| 99>     S 1
|100>      1    2.56 1.0
|101>     S 1
|102>      1    1.28 1.0
|103>     S 1
|104>      1    0.64 1.0
|105>     S 1
|106>      1    0.32 1.0
|107>     S 1
|108>      1    0.16 1.0
|109>     S 1
|110>      1    0.08 1.0
|111>     S 1
|112>      1    0.04 1.0
|113>     S 1
|114>      1    0.02 1.0
|115>     S 1
|116>      1    0.01 1.0
|117>   end
|118> end
|119>
|120> * xyz 0 1
|121> 80  0.0 0.0 0.0
|122> *
|123>
|124>
|125>                          ****END OF INPUT****

CARTESIAN COORDINATES (ANGSTROEM)
---------------------------------
  Hg     0.000000    0.000000    0.000000

 Total Charge           Charge          ....    0
 Multiplicity           Mult            ....    1
 Number of Electrons    NEL             ....   20
 Basis Dimension        Dim             ....   36

ORBITAL ENERGIES
----------------

  NO   OCC          E(Eh)            E(eV)
   0   2.0000      -4.874624      -132.6453
   1   2.0000      -3.031628       -82.4948
   2   2.0000      -3.031628       -82.4948
   3   2.0000      -3.031628       -82.4948
   4   2.0000      -0.604063       -16.4374
   5   2.0000      -0.604065       -16.4374
   6   2.0000      -0.604064       -16.4374
   7   2.0000      -0.604064       -16.4374
   8   2.0000      -0.604064       -16.4374
   9   2.0000      -0.495799       -13.4914
  10   0.0000       0.048795         1.3278
  11   0.0000       0.048795         1.3278
  12   0.0000       0.048795         1.3278
  13   0.0000       0.249184         6.7807
  14   0.0000       0.249184         6.7807

--------------------------
ATOM BASIS FOR ELEMENT Hg
--------------------------
 NewGTO Hg
 S 8
    1         48.013786990000        -0.005998318470
    2         21.239875095000         0.179181419460
    3         15.876100879000        -0.376565737067
    4          5.518053182000         0.835139680685
    5          1.509914547900        -0.991469057892
    6          0.706834821600        -0.507703146066
    7          0.162662655800         0.108826646531
    8          0.056960589100         0.107287038341
 S 8
    1         48.013786990000        -0.000908083950
    2         21.239875095000         0.027126230794
    3         15.876100879000        -0.057008193837
    4          5.518053182000         0.151702375681
    5          1.509914547900        -0.329002127757
    6          0.706834821600        -0.162697722801
    7          0.162662655800         0.643115273469
    8          0.056960589100         0.541832801895
 S 8
    1         48.013786990000        -0.001439795177
    2         21.239875095000         0.043009477559
    3         15.876100879000        -0.090388253797
    4          5.518053182000         0.224770122806
    5          1.509914547900        -0.240586001604
    6          0.706834821600        -0.693009476738
    7          0.162662655800         2.308218581834
    8          0.056960589100        -1.874969248175
 S 8
    1         48.013786990000         0.008864730281
    2         21.239875095000        -0.264806705891
    3         15.876100879000         0.556514914797
    4          5.518053182000        -1.360710509725
    5          1.509914547900         4.464900758885
    6          0.706834821600        -4.537271915841
    7          0.162662655800         1.941230745693
    8          0.056960589100        -0.740368109739
 S 8
    1         48.013786990000         0.053832767117
    2         21.239875095000        -1.608089279276
    3         15.876100879000         3.379543071730
    4          5.518053182000        -3.597034328870
    5          1.509914547900         2.774443438261
    6          0.706834821600        -1.715260186162
    7          0.162662655800         0.483867441647
    8          0.056960589100        -0.180273524698
 S 8
    1         48.013786990000         0.056906346253
    2         21.239875095000        -1.699903055942
    3         15.876100879000         3.572497913741
    4          5.518053182000        -1.540066726701
    5          1.509914547900         0.880724963834
    6          0.706834821600        -0.519385687102
    7          0.162662655800         0.144703405175
    8          0.056960589100        -0.054074158121
 P 8
    1         17.500000000000        -0.086454294421
    2         15.252594855000         0.153268053732
    3          6.440471516900        -0.302739422442
    4          1.818015992000         0.543594660893
    5          0.900679818000         0.497505478200
    6          0.413045401200         0.138124216220
    7          0.118457026500         0.006005581943
    8          0.036087619300        -0.000422418213
 P 8
    1         17.500000000000        -0.011616064980
    2         15.252594855000         0.020593212673
    3          6.440471516900        -0.040676299848
    4          1.818015992000         0.073037793506
    5          0.900679818000         0.131944905756
    6          0.413045401200        -0.079412196904
    7          0.118457026500        -0.083133453684
    8          0.036087619300        -0.932385384850
 P 8
    1         17.500000000000        -0.022307311361
    2         15.252594855000         0.039546886817
    3          6.440471516900        -0.078114136526
    4          1.818015992000         0.140260647964
    5          0.900679818000         0.169559120585
    6          0.413045401200         0.153210487065
    7          0.118457026500        -1.479331155722
    8          0.036087619300         1.015108692590
 P 8
    1         17.500000000000        -0.057090933023
    2         15.252594855000         0.101212047925
    3          6.440471516900        -0.199916918020
    4          1.818015992000         0.358968014080
    5          0.900679818000         1.300456873219
    6          0.413045401200        -2.431597983528
    7          0.118457026500         1.344419057949
    8          0.036087619300        -0.446322071146
 P 8
    1         17.500000000000        -0.573823932985
    2         15.252594855000         1.017287550407
    3          6.440471516900        -2.009375326230
    4          1.818015992000         3.608006153465
    5          0.900679818000        -4.253786933501
    6          0.413045401200         2.201218372932
    7          0.118457026500        -0.643200358326
    8          0.036087619300         0.203023718215
 D 6
    1         10.028197701000        -0.039893246582
    2          7.592066149300         0.094705132480
    3          1.914425611800        -0.311414362926
    4          0.886415521000        -0.455338563606
    5          0.381542353200        -0.331910887734
    6          0.148807400900        -0.109355011157
 D 6
    1         10.028197701000        -0.012697172975
    2          7.592066149300         0.030142631943
    3          1.914425611800        -0.099116576659
    4          0.886415521000        -0.144924592499
    5          0.381542353200        -0.477034647666
    6          0.148807400900         1.234824544940
 D 6
    1         10.028197701000        -0.065791564059
    2          7.592066149300         0.156186806645
    3          1.914425611800        -0.513581615007
    4          0.886415521000        -0.750940042310
    5          0.381542353200         1.755356743878
    6          0.148807400900        -0.802108518991
 end
  // -----------------------------------------------
  // The basis set
  // -----------------------------------------------
  BAS[ATNO] = new BFNGauss[NSH];
  // Basis function   1 L = s
  InitBFNGauss(BAS[ATNO][  0]);
  BAS[ATNO][  0].l  = 0;
  BAS[ATNO][  0].ng = 8;
  BAS[ATNO][  0].a[  0] =        48.013786990000;     BAS[ATNO][  0].d[  0] =         0.005998318470;
  BAS[ATNO][  0].a[  1] =        21.239875095000;     BAS[ATNO][  0].d[  1] =        -0.179181419460;
  BAS[ATNO][  0].a[  2] =        15.876100879000;     BAS[ATNO][  0].d[  2] =         0.376565737067;
  BAS[ATNO][  0].a[  3] =         5.518053182000;     BAS[ATNO][  0].d[  3] =        -0.835139680685;
  BAS[ATNO][  0].a[  4] =         1.509914547900;     BAS[ATNO][  0].d[  4] =         0.991469057892;
  BAS[ATNO][  0].a[  5] =         0.706834821600;     BAS[ATNO][  0].d[  5] =         0.507703146066;
  BAS[ATNO][  0].a[  6] =         0.162662655800;     BAS[ATNO][  0].d[  6] =        -0.108826646531;
  BAS[ATNO][  0].a[  7] =         0.056960589100;     BAS[ATNO][  0].d[  7] =        -0.107287038341;

FINAL SINGLE POINT ENERGY      -152.554326929157

DIPOLE MOMENT
-------------
                                X             Y             Z
Electronic contribution:      0.00000      -0.00000       0.00000
Nuclear contribution   :      0.00000       0.00000       0.00000
                        -----------------------------------------
Total Dipole Moment    :      0.00000      -0.00000       0.00000
                        -----------------------------------------
Magnitude (a.u.)       :      0.00000
Magnitude (Debye)      :      0.00000

Rotational constants in cm-1:     0.000000     0.000000     0.000000
Rotational constants in MHz :     0.000000     0.000000     0.000000

                             ****ORCA TERMINATED NORMALLY****
TOTAL RUN TIME: 0 days 0 hours 0 minutes 1 seconds 180 msec
