                         Program Version 4.2.0 -  RELEASE  -
|  1> #
|  2> # 81_Tl CCSD(T)/Def2-TZVP
|  3> #
|  4> ! CCSD(T) Def2-TZVP tightscf
|  5>
|  6> *xyz 0 2
|  7>  Tl 0.0 0.0 0.0
|  8> *
|  9>
| 10> %maxcore 5000
| 11>
| 12> %pal
| 13> nprocs 24
| 14> end
| 15>
| 16>
| 17>                          ****END OF INPUT****

CARTESIAN COORDINATES (ANGSTROEM)
---------------------------------
  Tl     0.000000    0.000000    0.000000

 Total Charge           Charge          ....    0
 Multiplicity           Mult            ....    2
 Number of Electrons    NEL             ....   21
 Basis Dimension        Dim             ....   50

ORBITAL ENERGIES
----------------
                 SPIN UP ORBITALS
  NO   OCC          E(Eh)            E(eV)
   0   1.0000      -5.643251      -153.5607
   1   1.0000      -3.469286       -94.4041
   2   1.0000      -3.469286       -94.4041
   3   1.0000      -3.463970       -94.2594
   4   1.0000      -0.846828       -23.0434
   5   1.0000      -0.846828       -23.0434
   6   1.0000      -0.839060       -22.8320
   7   1.0000      -0.839060       -22.8320
   8   1.0000      -0.836689       -22.7675
   9   1.0000      -0.473333       -12.8800
  10   1.0000      -0.192242        -5.2312
  11   0.0000       0.015059         0.4098
  12   0.0000       0.015059         0.4098
  13   0.0000       0.136329         3.7097
  14   0.0000       0.154026         4.1913
  15   0.0000       0.154026         4.1913

                 SPIN DOWN ORBITALS
  NO   OCC          E(Eh)            E(eV)
   0   1.0000      -5.642873      -153.5504
   1   1.0000      -3.471604       -94.4671
   2   1.0000      -3.471604       -94.4671
   3   1.0000      -3.460453       -94.1637
   4   1.0000      -0.847386       -23.0585
   5   1.0000      -0.847386       -23.0585
   6   1.0000      -0.835599       -22.7378
   7   1.0000      -0.835599       -22.7378
   8   1.0000      -0.832078       -22.6420
   9   1.0000      -0.422668       -11.5014
  10   0.0000       0.025224         0.6864
  11   0.0000       0.025224         0.6864
  12   0.0000       0.051080         1.3899
  13   0.0000       0.159041         4.3277
  14   0.0000       0.159041         4.3277

E(0)                                       ...   -171.514999103
E(0)                                       ...   -171.514999103
E(CORR)                                    ...     -0.321397783
E(TOT)                                     ...   -171.836396886
E(CCSD(T))                                 ...   -171.842630611

MULLIKEN ATOMIC CHARGES AND SPIN DENSITIES
------------------------------------------
   0 Tl:   -0.000000    1.000000
Sum of atomic charges       :   -0.0000000

LOEWDIN ATOMIC CHARGES AND SPIN DENSITIES
-----------------------------------------
   0 Tl:   -0.000000    1.000000

FINAL SINGLE POINT ENERGY      -171.842630610924

DIPOLE MOMENT
-------------
                                X             Y             Z
Electronic contribution:     -0.00000      -0.00000      -0.00000
Nuclear contribution   :      0.00000       0.00000       0.00000
                        -----------------------------------------
Total Dipole Moment    :     -0.00000      -0.00000      -0.00000
                        -----------------------------------------
Magnitude (a.u.)       :      0.00000
Magnitude (Debye)      :      0.00000

Rotational constants in cm-1:     0.000000     0.000000     0.000000
Rotational constants in MHz :     0.000000     0.000000     0.000000

                             ****ORCA TERMINATED NORMALLY****
TOTAL RUN TIME: 0 days 0 hours 0 minutes 12 seconds 833 msec
