                         Program Version 4.2.0 -  RELEASE  -
|  1> # input to generate an atomic fitting density for Tl
|  2> # this file is use internally by ORCA
|  3> #
|  4> # atomic ground state (S=2): 1s2 2s2 2p6 3s2 3p6 4s2 3d10 4p6 5s2 4d10 5p6 6s2 4f14 5d10 6p1
|  5> #
|  6> ! RHF AllowRHF def2-SVP def2/J  NoMulliken NoLoewdin NoMayer NoPrintMOs
|  7>
|  8> %output print[p_atomdensfit] 2 end
|  9>
| 10> %scf
| 11>   guess hcore
| 12>   maxiter 1000
| 13>   maxdisk 500000
| 14>   SCFMode Conventional
| 15>   lshift 1.000000
| 16>   hftyp rohf
| 17>   rohf_case sahf
| 18>   rohf_numop   2
| 19>   rohf_norb[1] 3
| 20>   rohf_nel[1]  1
| 21> end
| 22>
| 23> %basis
| 24>   NewECP 81
| 25>     N_core 60
| 26>     lmax f
| 27>     s 6
| 28>       1      12.1678050000    281.2846630000  2
| 29>       2       8.2949090000     62.4342510000  2
| 30>       3       5.6263990000    -15.8254880000  2
| 31>       4       5.5489520000    -21.1040210000  2
| 32>       5       2.8749460000     -2.9151270000  2
| 33>       6       2.8214510000     -3.8969030000  2
| 34>     p 8
| 35>       1       7.1514920000      4.6334080000  2
| 36>       2       5.1728650000      9.3417560000  2
| 37>       3       9.8910720000     72.2992530000  2
| 38>       4       9.0033910000    144.5580370000  2
| 39>       5       5.6263990000    -15.8254880000  2
| 40>       6       5.5489520000    -21.1040210000  2
| 41>       7       2.8749460000     -2.9151270000  2
| 42>       8       2.8214510000     -3.8969030000  2
| 43>     d 8
| 44>       1       7.1302180000     35.9430390000  2
| 45>       2       6.9269060000     53.9095930000  2
| 46>       3       5.4175700000     10.3819390000  2
| 47>       4       5.1386810000     15.5838220000  2
| 48>       5       5.6263990000    -15.8254880000  2
| 49>       6       5.5489520000    -21.1040210000  2
| 50>       7       2.8749460000     -2.9151270000  2
| 51>       8       2.8214510000     -3.8969030000  2
| 52>     f 4
| 53>       1       5.6263990000     15.8254880000  2
| 54>       2       5.5489520000     21.1040210000  2
| 55>       3       2.8749460000      2.9151270000  2
| 56>       4       2.8214510000      3.8969030000  2
| 57>   end
| 58>   NewGTO 81
| 59>     s 4
| 60>      1     729.6503814500      0.0006142718
| 61>      2      46.6655487070      0.0271550952
| 62>      3      20.9704487260     -0.8995204906
| 63>      4      14.1495886770      1.8330747970
| 64>     s 2
| 65>      1      20.7301342850     -0.0775732709
| 66>      2       6.1527631309      1.0585195425
| 67>     s 1
| 68>      1       1.5757324480      1.0000000000
| 69>     s 1
| 70>      1       0.7498016946      1.0000000000
| 71>     s 1
| 72>      1       0.1953681619      1.0000000000
| 73>     s 1
| 74>      1       0.0708787673      1.0000000000
| 75>     p 3
| 76>      1      15.3838526160      2.0084242419
| 77>      2      14.8149295440     -2.3709837424
| 78>      3       6.7261253658      1.3159389276
| 79>     p 3
| 80>      1       1.9626182149      0.4740914507
| 81>      2       1.0331857851      0.4309501157
| 82>      3       0.5383744600      0.1538728384
| 83>     p 1
| 84>      1       0.2444661168      1.0000000000
| 85>     p 1
| 86>      1       0.0907853773      1.0000000000
| 87>     p 1
| 88>      1       0.0334013215      1.0000000000
| 89>   end
| 90>   NewAuxGTO 81
| 91>     S 1
| 92>      1 1310.72 1.0
| 93>     S 1
| 94>      1  655.36 1.0
| 95>     S 1
| 96>      1  327.68 1.0
| 97>     S 1
| 98>      1  163.84 1.0
| 99>     S 1
|100>      1   81.82 1.0
|101>     S 1
|102>      1   40.96 1.0
|103>     S 1
|104>      1   20.48 1.0
|105>     S 1
|106>      1   10.24 1.0
|107>     S 1
|108>      1    5.12 1.0
|109>     S 1
|110>      1    2.56 1.0
|111>     S 1
|112>      1    1.28 1.0
|113>     S 1
|114>      1    0.64 1.0
|115>     S 1
|116>      1    0.32 1.0
|117>     S 1
|118>      1    0.16 1.0
|119>     S 1
|120>      1    0.08 1.0
|121>     S 1
|122>      1    0.04 1.0
|123>     S 1
|124>      1    0.02 1.0
|125>     S 1
|126>      1    0.01 1.0
|127>   end
|128> end
|129>
|130> * xyz 0 2
|131> 81  0.0 0.0 0.0
|132> *
|133>
|134>
|135>                          ****END OF INPUT****

CARTESIAN COORDINATES (ANGSTROEM)
---------------------------------
  Tl     0.000000    0.000000    0.000000

 Total Charge           Charge          ....    0
 Multiplicity           Mult            ....    2
 Number of Electrons    NEL             ....   21
 Basis Dimension        Dim             ....   21

ORBITAL ENERGIES
----------------

  NO   OCC          E(Eh)            E(eV)
   0   2.0000      -8.712077      -237.0677
   1   2.0000      -6.216536      -169.1605
   2   2.0000      -6.216536      -169.1605
   3   2.0000      -6.210334      -168.9918
   4   2.0000      -2.084685       -56.7272
   5   2.0000      -1.206792       -32.8385
   6   2.0000      -1.206792       -32.8385
   7   2.0000      -1.188568       -32.3426
   8   2.0000      -0.342692        -9.3251
   9   2.0000      -0.141347        -3.8462
  10   0.3333      -0.187703        -5.1077
  11   0.3333      -0.187703        -5.1077
  12   0.3333       0.721961        19.6455
  13   0.0000       0.031761         0.8643
  14   0.0000       0.031761         0.8643
  15   0.0000       0.050536         1.3752
  16   0.0000      31.501501       857.1994
  17   0.0000      32.460829       883.3041

CleanUpVectors: The p-vectors have cracked symmetry
CleanUpVectors: The p-vectors have cracked symmetry
CleanUpVectors: The p-vectors have cracked symmetry
CleanUpVectors: The p-vectors have cracked symmetry
CleanUpVectors: The p-vectors have cracked symmetry
CleanUpVectors: The p-vectors have cracked symmetry
CleanUpVectors: The p-vectors have cracked symmetry
CleanUpVectors: The p-vectors have cracked symmetry
CleanUpVectors: The p-vectors have cracked symmetry
CleanUpVectors: The p-vectors have cracked symmetry
CleanUpVectors: The p-vectors have cracked symmetry
CleanUpVectors: The p-vectors have cracked symmetry
CleanUpVectors: The p-vectors have cracked symmetry
CleanUpVectors: The p-vectors have cracked symmetry
--------------------------
ATOM BASIS FOR ELEMENT Tl
--------------------------
 NewGTO Tl
 S 10
    1        729.650381450000        -0.000180975934
    2         46.665548707000        -0.008000397743
    3         20.970448726000         0.265015521030
    4         14.149588677000        -0.540058039246
    5         20.730134285000        -0.077311873614
    6          6.152763130900         1.054952667817
    7          1.575732448000        -1.224993149581
    8          0.749801694600        -0.233017816559
    9          0.195368161900         0.004255532992
   10          0.070878767300        -0.001279078400
 P 19
    1         15.383852616000        -0.007924969355
    2         14.814929544000         0.009355579916
    3          6.726125365800        -0.005192516330
    4         15.383852616000        -0.052681166419
    5         14.814929544000         0.062191137959
    6          6.726125365800        -0.034517208165
    7         15.383852616000        -0.543745854262
    8         14.814929544000         0.641902519177
    9          6.726125365800        -0.356267526261
   10          1.962618214900         0.008162382005
   11          1.033185785100         0.007419622236
   12          0.538374460000         0.002649212268
   13          1.962618214900         0.054259364989
   14          1.033185785100         0.049321875737
   15          0.538374460000         0.017610616028
   16          1.962618214900         0.560035146773
   17          1.033185785100         0.509073114357
   18          0.538374460000         0.181767035686
   19          0.244466116800        -0.002159925768
 S 10
    1        729.650381450000        -0.000121118516
    2         46.665548707000        -0.005354282657
    3         20.970448726000         0.177362182942
    4         14.149588677000        -0.361434954388
    5         20.730134285000        -0.059309350751
    6          6.152763130900         0.809300756492
    7          1.575732448000        -1.837364890982
    8          0.749801694600         0.834339934765
    9          0.195368161900         1.069315191124
   10          0.070878767300        -0.183809574712
 P 19
    1         15.383852616000        -0.003412341797
    2         14.814929544000         0.004028335625
    3          6.726125365800        -0.002235799245
    4         15.383852616000        -0.022768171079
    5         14.814929544000         0.026878267224
    6          6.726125365800        -0.014917925211
    7         15.383852616000        -0.234977779265
    8         14.814929544000         0.277395822476
    9          6.726125365800        -0.153959706523
   10          1.962618214900         0.004629159601
   11          1.033185785100         0.004207915715
   12          0.538374460000         0.001502456807
   13          1.962618214900         0.030887145551
   14          1.033185785100         0.028076479610
   15          0.538374460000         0.010024843833
   16          1.962618214900         0.318769252228
   17          1.033185785100         0.289761913923
   18          0.538374460000         0.103460903086
   19          0.244466116800        -0.019783411859
 S 10
    1        729.650381450000         0.001622711314
    2         46.665548707000         0.071735150803
    3         20.970448726000        -2.376247903686
    4         14.149588677000         4.842402356800
    5         20.730134285000         0.348206184123
    6          6.152763130900        -4.751418193880
    7          1.575732448000         3.133164718774
    8          0.749801694600        -2.075287396270
    9          0.195368161900         0.649839398838
   10          0.070878767300        -0.233358192151
 P 19
    1         20.970448726000        -0.000000009253
    2         14.149588677000         0.000000022956
    3         20.730134285000         0.000000003660
    4          6.152763130900        -0.000000091670
    5          1.575732448000         0.000000534729
    6          0.749801694600        -0.000000693604
    7          0.195368161900         0.000000564045
    8         15.383852616000        -0.232491267676
    9         14.814929544000         0.274460447354
   10          6.726125365800        -0.152330520155
   11         15.383852616000         0.041134285389
   12         14.814929544000        -0.048559821117
   13          6.726125365800         0.026951580385
   14         15.383852616000        -0.000609473701
   15         14.814929544000         0.000719495517
   16          6.726125365800        -0.000399333045
   17          1.962618214900         0.315396067573
   18          1.033185785100         0.286695682048
   19          0.538374460000         0.102366090057
 P 19
    1         15.383852616000        -0.001254108161
    2         14.814929544000         0.001480498990
    3          6.726125365800        -0.000821703759
    4         15.383852616000        -0.008373919211
    5         14.814929544000         0.009885573922
    6          6.726125365800        -0.005486672604
    7         15.383852616000        -0.086420980297
    8         14.814929544000         0.102021642147
    9          6.726125365800        -0.056623859522
   10          1.962618214900         0.001811023346
   11          1.033185785100         0.001646223991
   12          0.538374460000         0.000587792297
   13          1.962618214900         0.012092548039
   14          1.033185785100         0.010992151343
   15          0.538374460000         0.003924801191
   16          1.962618214900         0.124798177476
   17          1.033185785100         0.113441803144
   18          0.538374460000         0.040504948501
   19          0.244466116800        -0.012960264832
 P 19
    1        729.650381450000        -0.000000001079
    2         46.665548707000        -0.000000188677
    3         20.970448726000         0.000009323367
    4         14.149588677000        -0.000023129905
    5         20.730134285000        -0.000003268462
    6          6.152763130900         0.000081864595
    7          1.575732448000        -0.000544461050
    8          0.749801694600         0.000944055875
    9          0.195368161900        -0.001161580699
   10          0.070878767300         0.000895574808
   11         15.383852616000        -0.095549393715
   12         14.814929544000         0.112797911102
   13          6.726125365800        -0.062604884005
   14         15.383852616000         0.016905354545
   15         14.814929544000        -0.019957098680
   16          6.726125365800         0.011076551292
   17         15.383852616000        -0.000250857474
   18         14.814929544000         0.000296142109
   19          6.726125365800        -0.000164364235
 P 19
    1        729.650381450000         0.000000000036
    2         46.665548707000         0.000000006339
    3         20.970448726000        -0.000000313263
    4         14.149588677000         0.000000777159
    5         20.730134285000         0.000000046274
    6          6.152763130900        -0.000001159026
    7          1.575732448000         0.000001539145
    8          0.749801694600        -0.000001499492
    9          0.195368161900         0.000000936569
   10         15.383852616000        -2.411769226627
   11         14.814929544000         2.847140314012
   12          6.726125365800        -1.580214450461
   13         15.383852616000         0.426878527552
   14         14.814929544000        -0.503938375015
   15          6.726125365800         0.279694927019
   16         15.383852616000        -0.004630514184
   17         14.814929544000         0.005466411737
   18          6.726125365800        -0.003033957539
   19          1.962618214900         0.280676554761
 end
  // -----------------------------------------------
  // The basis set
  // -----------------------------------------------
  BAS[ATNO] = new BFNGauss[NSH];
  // Basis function   1 L = s
  InitBFNGauss(BAS[ATNO][  0]);
  BAS[ATNO][  0].l  = 0;
  BAS[ATNO][  0].ng = 10;
  BAS[ATNO][  0].a[  0] =       729.650381450000;     BAS[ATNO][  0].d[  0] =         0.000180975934;
  BAS[ATNO][  0].a[  1] =        46.665548707000;     BAS[ATNO][  0].d[  1] =         0.008000397743;
  BAS[ATNO][  0].a[  2] =        20.970448726000;     BAS[ATNO][  0].d[  2] =        -0.265015521030;
  BAS[ATNO][  0].a[  3] =        14.149588677000;     BAS[ATNO][  0].d[  3] =         0.540058039246;
  BAS[ATNO][  0].a[  4] =        20.730134285000;     BAS[ATNO][  0].d[  4] =         0.077311873614;
  BAS[ATNO][  0].a[  5] =         6.152763130900;     BAS[ATNO][  0].d[  5] =        -1.054952667817;
  BAS[ATNO][  0].a[  6] =         1.575732448000;     BAS[ATNO][  0].d[  6] =         1.224993149581;
  BAS[ATNO][  0].a[  7] =         0.749801694600;     BAS[ATNO][  0].d[  7] =         0.233017816559;
  BAS[ATNO][  0].a[  8] =         0.195368161900;     BAS[ATNO][  0].d[  8] =        -0.004255532992;
  BAS[ATNO][  0].a[  9] =         0.070878767300;     BAS[ATNO][  0].d[  9] =         0.001279078400;

FINAL SINGLE POINT ENERGY      -156.466219565692

DIPOLE MOMENT
-------------
                                X             Y             Z
Electronic contribution:      0.00001      -0.00000      -0.00006
Nuclear contribution   :      0.00000       0.00000       0.00000
                        -----------------------------------------
Total Dipole Moment    :      0.00001      -0.00000      -0.00006
                        -----------------------------------------
Magnitude (a.u.)       :      0.00006
Magnitude (Debye)      :      0.00016

Rotational constants in cm-1:     0.000000     0.000000     0.000000
Rotational constants in MHz :     0.000000     0.000000     0.000000

                             ****ORCA TERMINATED NORMALLY****
TOTAL RUN TIME: 0 days 0 hours 0 minutes 1 seconds 147 msec
