                         Program Version 4.2.0 -  RELEASE  -
|  1> # input to generate an atomic fitting density for Pb
|  2> # this file is use internally by ORCA
|  3> #
|  4> # atomic ground state (S=3): 1s2 2s2 2p6 3s2 3p6 4s2 3d10 4p6 5s2 4d10 5p6 6s2 4f14 5d10 6p2
|  5> #
|  6> ! RHF AllowRHF def2-SVP def2/J  NoMulliken NoLoewdin NoMayer NoPrintMOs
|  7>
|  8> %output print[p_atomdensfit] 2 end
|  9>
| 10> %scf
| 11>   guess hcore
| 12>   maxiter 1000
| 13>   maxdisk 500000
| 14>   SCFMode Conventional
| 15>   lshift 1.000000
| 16>   hftyp rohf
| 17>   rohf_case sahf
| 18>   rohf_numop   2
| 19>   rohf_norb[1] 3
| 20>   rohf_nel[1]  2
| 21> end
| 22>
| 23> %basis
| 24>   NewECP 82
| 25>     N_core 60
| 26>     lmax f
| 27>     s 4
| 28>       1      12.2963030000    281.2854990000  2
| 29>       2       8.6326340000     62.5202170000  2
| 30>       3       3.8875120000    -12.2098920000  2
| 31>       4       3.8119630000    -16.1902910000  2
| 32>     p 6
| 33>       1      10.2417900000     72.2768970000  2
| 34>       2       8.9241760000    144.5910830000  2
| 35>       3       6.5813420000      4.7586930000  2
| 36>       4       6.2554030000      9.9406210000  2
| 37>       5       3.8875120000    -12.2098920000  2
| 38>       6       3.8119630000    -16.1902910000  2
| 39>     d 6
| 40>       1       7.7543360000     35.8485070000  2
| 41>       2       7.7202810000     53.7243420000  2
| 42>       3       4.9702640000     10.1152560000  2
| 43>       4       4.5637890000     14.8337310000  2
| 44>       5       3.8875120000    -12.2098920000  2
| 45>       6       3.8119630000    -16.1902910000  2
| 46>     f 2
| 47>       1       3.8875120000     12.2098920000  2
| 48>       2       3.8119630000     16.1902910000  2
| 49>   end
| 50>   NewGTO 82
| 51>     s 4
| 52>      1     591.6112437000      0.0010793043
| 53>      2      46.7572325590      0.0277853403
| 54>      3      20.7464626960     -1.0426004422
| 55>      4      14.6107964190      1.9756678237
| 56>     s 2
| 57>      1      20.2226376120     -0.0913815030
| 58>      2       6.4767324865      1.0709890840
| 59>     s 1
| 60>      1       1.6600600927      1.0000000000
| 61>     s 1
| 62>      1       0.8043165500      1.0000000000
| 63>     s 1
| 64>      1       0.2262703902      1.0000000000
| 65>     s 1
| 66>      1       0.0840145307      1.0000000000
| 67>     p 3
| 68>      1      15.1891021180      2.1791721897
| 69>      2      14.6931444150     -2.5501345314
| 70>      3       6.8705890048      1.3253942268
| 71>     p 3
| 72>      1       2.2021426123      0.4021965022
| 73>      2       1.2209125119      0.4608490466
| 74>      3       0.6336755981      0.1937891349
| 75>     p 1
| 76>      1       0.2820283706      1.0000000000
| 77>     p 1
| 78>      1       0.1133337567      1.0000000000
| 79>     p 1
| 80>      1       0.0439487074      1.0000000000
| 81>   end
| 82>   NewAuxGTO 82
| 83>     S 1
| 84>      1 1310.72 1.0
| 85>     S 1
| 86>      1  655.36 1.0
| 87>     S 1
| 88>      1  327.68 1.0
| 89>     S 1
| 90>      1  163.84 1.0
| 91>     S 1
| 92>      1   81.82 1.0
| 93>     S 1
| 94>      1   40.96 1.0
| 95>     S 1
| 96>      1   20.48 1.0
| 97>     S 1
| 98>      1   10.24 1.0
| 99>     S 1
|100>      1    5.12 1.0
|101>     S 1
|102>      1    2.56 1.0
|103>     S 1
|104>      1    1.28 1.0
|105>     S 1
|106>      1    0.64 1.0
|107>     S 1
|108>      1    0.32 1.0
|109>     S 1
|110>      1    0.16 1.0
|111>     S 1
|112>      1    0.08 1.0
|113>     S 1
|114>      1    0.04 1.0
|115>     S 1
|116>      1    0.02 1.0
|117>     S 1
|118>      1    0.01 1.0
|119>   end
|120> end
|121>
|122> * xyz 0 3
|123> 82  0.0 0.0 0.0
|124> *
|125>
|126>
|127>                          ****END OF INPUT****

CARTESIAN COORDINATES (ANGSTROEM)
---------------------------------
  Pb     0.000000    0.000000    0.000000

 Total Charge           Charge          ....    0
 Multiplicity           Mult            ....    3
 Number of Electrons    NEL             ....   22
 Basis Dimension        Dim             ....   21

ORBITAL ENERGIES
----------------

  NO   OCC          E(Eh)            E(eV)
   0   2.0000      -9.563038      -260.2235
   1   2.0000      -6.900249      -187.7653
   2   2.0000      -6.897031      -187.6778
   3   2.0000      -6.893789      -187.5895
   4   2.0000      -2.411821       -65.6290
   5   2.0000      -1.449588       -39.4453
   6   2.0000      -1.441959       -39.2377
   7   2.0000      -1.432114       -38.9698
   8   2.0000      -0.432993       -11.7823
   9   2.0000      -0.190301        -5.1784
  10   0.6667      -0.227725        -6.1967
  11   0.6667      -0.226384        -6.1602
  12   0.6667       0.070641         1.9222
  13   0.0000       0.140498         3.8231
  14   0.0000       0.162692         4.4271
  15   0.0000       0.900639        24.5076
  16   0.0000      31.838092       866.3585
  17   0.0000      32.192338       875.9981

CleanUpVectors: The p-vectors have cracked symmetry
CleanUpVectors: The p-vectors have cracked symmetry
CleanUpVectors: The p-vectors have cracked symmetry
CleanUpVectors: The p-vectors have cracked symmetry
CleanUpVectors: The p-vectors have cracked symmetry
CleanUpVectors: The p-vectors have cracked symmetry
CleanUpVectors: The p-vectors have cracked symmetry
CleanUpVectors: The p-vectors have cracked symmetry
CleanUpVectors: The p-vectors have cracked symmetry
CleanUpVectors: The p-vectors have cracked symmetry
CleanUpVectors: The p-vectors have cracked symmetry
CleanUpVectors: The p-vectors have cracked symmetry
CleanUpVectors: The p-vectors have cracked symmetry
CleanUpVectors: The p-vectors have cracked symmetry
--------------------------
ATOM BASIS FOR ELEMENT Pb
--------------------------
 NewGTO Pb
 S 10
    1        591.611243700000         0.000330328354
    2         46.757232559000         0.008503890623
    3         20.746462696000        -0.319094890626
    4         14.610796419000         0.604666449965
    5         20.222637612000         0.093325139308
    6          6.476732486500        -1.093768456195
    7          1.660060092700         1.253555146889
    8          0.804316550000         0.212437913924
    9          0.226270390200        -0.000899254811
   10          0.084014530700         0.000079587394
 P 19
    1         15.189102118000         0.149446367789
    2         14.693144415000        -0.174886750525
    3          6.870589004800         0.090894769133
    4         15.189102118000         0.060773081687
    5         14.693144415000        -0.071118535250
    6          6.870589004800         0.036962793483
    7         15.189102118000        -0.614959565712
    8         14.693144415000         0.719644657430
    9          6.870589004800        -0.374024531867
   10          2.202142612300        -0.114255662341
   11          1.220912511900        -0.130917630488
   12          0.633675598100        -0.055051463256
   13          2.202142612300        -0.046462612664
   14          1.220912511900        -0.053238281864
   15          0.633675598100        -0.022386941368
   16          2.202142612300         0.470152694460
   17          1.220912511900         0.538715328983
   18          0.633675598100         0.226532263289
   19          0.282028370600         0.038268036779
 S 10
    1        591.611243700000        -0.000222963243
    2         46.757232559000        -0.005739910022
    3         20.746462696000         0.215380940525
    4         14.610796419000        -0.408134484516
    5         20.222637612000        -0.072985339280
    6          6.476732486500         0.855386474229
    7          1.660060092700        -1.935793028675
    8          0.804316550000         0.884303742068
    9          0.226270390200         1.069807273949
   10          0.084014530700        -0.171340876552
 P 19
    1         15.189102118000         0.070017169965
    2         14.693144415000        -0.081936252566
    3          6.870589004800         0.042585140031
    4         15.189102118000         0.028472817725
    5         14.693144415000        -0.033319769787
    6          6.870589004800         0.017317451283
    7         15.189102118000        -0.288114920901
    8         14.693144415000         0.337160969782
    9          6.870589004800        -0.175234364050
   10          2.202142612300        -0.070871757528
   11          1.220912511900        -0.081207026189
   12          0.633675598100        -0.034147926461
   13          2.202142612300        -0.028820339853
   14          1.220912511900        -0.033023226386
   15          0.633675598100        -0.013886417950
   16          2.202142612300         0.291631478740
   17          1.220912511900         0.334160262958
   18          0.633675598100         0.140515921112
   19          0.282028370600         0.338988650821
 S 10
    1        591.611243700000         0.003003363727
    2         46.757232559000         0.077317845590
    3         20.746462696000        -2.901228458323
    4         14.610796419000         5.497660927725
    5         20.222637612000         0.429948309977
    6          6.476732486500        -5.038984165857
    7          1.660060092700         3.387620072145
    8          0.804316550000        -2.338606218080
    9          0.226270390200         0.764572349525
   10          0.084014530700        -0.265949539315
 P 19
    1         15.189102118000        -0.288421389749
    2         14.693144415000         0.337519609084
    3          6.870589004800        -0.175420761455
    4         15.189102118000        -0.019091588756
    5         14.693144415000         0.022341566204
    6          6.870589004800        -0.011611694403
    7         15.189102118000        -0.071978364500
    8         14.693144415000         0.084231302920
    9          6.870589004800        -0.043777958077
   10          2.202142612300         0.292092899245
   11          1.220912511900         0.334688972677
   12          0.633675598100         0.140738245970
   13          2.202142612300         0.019334618406
   14          1.220912511900         0.022154196792
   15          0.633675598100         0.009315941223
   16          2.202142612300         0.072894625423
   17          1.220912511900         0.083524890059
   18          0.633675598100         0.035122598835
   19          0.282028370600        -1.398696367910
 P 19
    1         15.189102118000         0.026993234541
    2         14.693144415000        -0.031588315895
    3          6.870589004800         0.016417554057
    4         15.189102118000         0.010976928192
    5         14.693144415000        -0.012845540046
    6          6.870589004800         0.006676277039
    7         15.189102118000        -0.111074949737
    8         14.693144415000         0.129983333229
    9          6.870589004800        -0.067556890557
   10          2.202142612300        -0.029188475606
   11          1.220912511900        -0.033445047586
   12          0.633675598100        -0.014063795697
   13          2.202142612300        -0.011869633492
   14          1.220912511900        -0.013600588887
   15          0.633675598100        -0.005719109921
   16          2.202142612300         0.120108186959
   17          1.220912511900         0.137623632096
   18          0.633675598100         0.057871367647
   19          0.282028370600         0.235714046819
 P 19
    1         15.189102118000         0.031161738992
    2         14.693144415000        -0.036466428416
    3          6.870589004800         0.018952879975
    4         15.189102118000         0.012672070504
    5         14.693144415000        -0.014829247881
    6          6.870589004800         0.007707279474
    7         15.189102118000        -0.128228004206
    8         14.693144415000         0.150056366800
    9          6.870589004800        -0.077989549101
   10          2.202142612300        -0.034354652541
   11          1.220912511900        -0.039364611038
   12          0.633675598100        -0.016552999241
   13          2.202142612300        -0.013970484101
   14          1.220912511900        -0.016007807734
   15          0.633675598100        -0.006731356472
   16          2.202142612300         0.141366582001
   17          1.220912511900         0.161982150963
   18          0.633675598100         0.068114236399
   19          0.282028370600         0.364768265433
 P 19
    1         15.189102118000        -2.642510543472
    2         14.693144415000         3.092347368578
    3          6.870589004800        -1.607201227663
    4         15.189102118000        -0.174916723938
    5         14.693144415000         0.204692947139
    6          6.870589004800        -0.106386093386
    7         15.189102118000        -0.659464221146
    8         14.693144415000         0.771725378341
    9          6.870589004800        -0.401092706496
   10          2.202142612300         0.261448791895
   11          1.220912511900         0.299576017743
   12          0.633675598100         0.125973087595
   13          2.202142612300         0.017306181150
   14          1.220912511900         0.019829951378
   15          0.633675598100         0.008338585381
   16          2.202142612300         0.065247090250
   17          1.220912511900         0.074762110487
   18          0.633675598100         0.031437809889
   19          0.282028370600        -0.444994732607
 end
  // -----------------------------------------------
  // The basis set
  // -----------------------------------------------
  BAS[ATNO] = new BFNGauss[NSH];
  // Basis function   1 L = s
  InitBFNGauss(BAS[ATNO][  0]);
  BAS[ATNO][  0].l  = 0;
  BAS[ATNO][  0].ng = 10;
  BAS[ATNO][  0].a[  0] =       591.611243700000;     BAS[ATNO][  0].d[  0] =         0.000330328354;
  BAS[ATNO][  0].a[  1] =        46.757232559000;     BAS[ATNO][  0].d[  1] =         0.008503890623;
  BAS[ATNO][  0].a[  2] =        20.746462696000;     BAS[ATNO][  0].d[  2] =        -0.319094890626;
  BAS[ATNO][  0].a[  3] =        14.610796419000;     BAS[ATNO][  0].d[  3] =         0.604666449965;
  BAS[ATNO][  0].a[  4] =        20.222637612000;     BAS[ATNO][  0].d[  4] =         0.093325139308;
  BAS[ATNO][  0].a[  5] =         6.476732486500;     BAS[ATNO][  0].d[  5] =        -1.093768456195;
  BAS[ATNO][  0].a[  6] =         1.660060092700;     BAS[ATNO][  0].d[  6] =         1.253555146889;
  BAS[ATNO][  0].a[  7] =         0.804316550000;     BAS[ATNO][  0].d[  7] =         0.212437913924;
  BAS[ATNO][  0].a[  8] =         0.226270390200;     BAS[ATNO][  0].d[  8] =        -0.000899254811;
  BAS[ATNO][  0].a[  9] =         0.084014530700;     BAS[ATNO][  0].d[  9] =         0.000079587394;

FINAL SINGLE POINT ENERGY      -173.611612448137

DIPOLE MOMENT
-------------
                                X             Y             Z
Electronic contribution:     -0.00000       0.00000      -0.00000
Nuclear contribution   :      0.00000       0.00000       0.00000
                        -----------------------------------------
Total Dipole Moment    :     -0.00000       0.00000      -0.00000
                        -----------------------------------------
Magnitude (a.u.)       :      0.00000
Magnitude (Debye)      :      0.00000

Rotational constants in cm-1:     0.000000     0.000000     0.000000
Rotational constants in MHz :     0.000000     0.000000     0.000000

                             ****ORCA TERMINATED NORMALLY****
TOTAL RUN TIME: 0 days 0 hours 0 minutes 1 seconds 179 msec
