                         Program Version 4.2.0 -  RELEASE  -
|  1> #
|  2> # 82_Pb CCSD(T)/Def2-TZVP
|  3> #
|  4> ! CCSD(T) Def2-TZVP tightscf
|  5>
|  6> *xyz 0 3
|  7>  Pb 0.0 0.0 0.0
|  8> *
|  9>
| 10> %maxcore 5000
| 11>
| 12> %pal
| 13> nprocs 24
| 14> end
| 15>
| 16>
| 17>                          ****END OF INPUT****

CARTESIAN COORDINATES (ANGSTROEM)
---------------------------------
  Pb     0.000000    0.000000    0.000000

 Total Charge           Charge          ....    0
 Multiplicity           Mult            ....    3
 Number of Electrons    NEL             ....   22
 Basis Dimension        Dim             ....   50

ORBITAL ENERGIES
----------------
                 SPIN UP ORBITALS
  NO   OCC          E(Eh)            E(eV)
   0   1.0000      -6.173810      -167.9979
   1   1.0000      -3.859359      -105.0185
   2   1.0000      -3.853268      -104.8527
   3   1.0000      -3.853268      -104.8527
   4   1.0000      -1.081901       -29.4400
   5   1.0000      -1.078651       -29.3516
   6   1.0000      -1.078651       -29.3516
   7   1.0000      -1.069584       -29.1049
   8   1.0000      -1.069584       -29.1049
   9   1.0000      -0.623143       -16.9566
  10   1.0000      -0.254733        -6.9316
  11   1.0000      -0.254733        -6.9316
  12   0.0000      -0.014156        -0.3852
  13   0.0000       0.165374         4.5001
  14   0.0000       0.165374         4.5001
  15   0.0000       0.178725         4.8634
  16   0.0000       0.267386         7.2759

                 SPIN DOWN ORBITALS
  NO   OCC          E(Eh)            E(eV)
   0   1.0000      -6.169620      -167.8839
   1   1.0000      -3.862829      -105.1129
   2   1.0000      -3.847935      -104.7076
   3   1.0000      -3.847935      -104.7076
   4   1.0000      -1.078806       -29.3558
   5   1.0000      -1.073551       -29.2128
   6   1.0000      -1.073551       -29.2128
   7   1.0000      -1.058898       -28.8141
   8   1.0000      -1.058898       -28.8141
   9   1.0000      -0.503292       -13.6953
  10   0.0000       0.010673         0.2904
  11   0.0000       0.042992         1.1699
  12   0.0000       0.042992         1.1699
  13   0.0000       0.188191         5.1209
  14   0.0000       0.214018         5.8237

E(0)                                       ...   -191.835522281
E(0)                                       ...   -191.835522281
E(CORR)                                    ...     -0.328374297
E(TOT)                                     ...   -192.163896578
E(CCSD(T))                                 ...   -192.169522205

MULLIKEN ATOMIC CHARGES AND SPIN DENSITIES
------------------------------------------
   0 Pb:   -0.000000    2.000000
Sum of atomic charges       :   -0.0000000

LOEWDIN ATOMIC CHARGES AND SPIN DENSITIES
-----------------------------------------
   0 Pb:   -0.000000    2.000000

FINAL SINGLE POINT ENERGY      -192.169522204874

DIPOLE MOMENT
-------------
                                X             Y             Z
Electronic contribution:      0.00000      -0.00000       0.00000
Nuclear contribution   :      0.00000       0.00000       0.00000
                        -----------------------------------------
Total Dipole Moment    :      0.00000      -0.00000       0.00000
                        -----------------------------------------
Magnitude (a.u.)       :      0.00000
Magnitude (Debye)      :      0.00000

Rotational constants in cm-1:     0.000000     0.000000     0.000000
Rotational constants in MHz :     0.000000     0.000000     0.000000

                             ****ORCA TERMINATED NORMALLY****
TOTAL RUN TIME: 0 days 0 hours 0 minutes 17 seconds 912 msec
