                         Program Version 4.2.0 -  RELEASE  -
|  1> # input to generate an atomic fitting density for Bi
|  2> # this file is use internally by ORCA
|  3> #
|  4> # atomic ground state (S=4): 1s2 2s2 2p6 3s2 3p6 4s2 3d10 4p6 5s2 4d10 5p6 6s2 4f14 5d10 6p3
|  5> #
|  6> ! RHF AllowRHF def2-SVP def2/J  NoMulliken NoLoewdin NoMayer NoPrintMOs
|  7>
|  8> %output print[p_atomdensfit] 2 end
|  9>
| 10> %scf
| 11>   guess hcore
| 12>   maxiter 1000
| 13>   maxdisk 500000
| 14>   SCFMode Conventional
| 15>   lshift 1.000000
| 16>   hftyp rohf
| 17>   rohf_case sahf
| 18>   rohf_numop   2
| 19>   rohf_norb[1] 3
| 20>   rohf_nel[1]  3
| 21> end
| 22>
| 23> %basis
| 24>   NewECP 83
| 25>     N_core 60
| 26>     lmax f
| 27>     s 4
| 28>       1      13.0430900000    283.2642270000  2
| 29>       2       8.2216820000     62.4719590000  2
| 30>       3       4.2145460000    -13.7133830000  2
| 31>       4       4.1334000000    -18.1943080000  2
| 32>     p 6
| 33>       1      10.4677770000     72.0014990000  2
| 34>       2       9.1189010000    144.0022770000  2
| 35>       3       6.7547910000      5.0079450000  2
| 36>       4       6.2525920000      9.9915500000  2
| 37>       5       4.2145460000    -13.7133830000  2
| 38>       6       4.1334000000    -18.1943080000  2
| 39>     d 6
| 40>       1       8.0814740000     36.3962590000  2
| 41>       2       7.8905950000     54.5976640000  2
| 42>       3       4.9555560000      9.9842940000  2
| 43>       4       4.7045590000     14.9814850000  2
| 44>       5       4.2145460000    -13.7133830000  2
| 45>       6       4.1334000000    -18.1943080000  2
| 46>     f 2
| 47>       1       4.2145460000     13.7133830000  2
| 48>       2       4.1334000000     18.1943080000  2
| 49>   end
| 50>   NewGTO 83
| 51>     s 4
| 52>      1     716.4143531000      0.0016093804
| 53>      2      83.8060590470      0.0090755346
| 54>      3      21.1169628530     -1.1282637962
| 55>      4      15.4914481870      2.0808980196
| 56>     s 2
| 57>      1      23.2398550290     -0.0735378540
| 58>      2       6.6474255000      1.0546329000
| 59>     s 1
| 60>      1       1.7617744005      1.0000000000
| 61>     s 1
| 62>      1       0.8725286600      1.0000000000
| 63>     s 1
| 64>      1       0.2561889600      1.0000000000
| 65>     s 1
| 66>      1       0.0970739130      1.0000000000
| 67>     p 3
| 68>      1      15.2496446690      2.4477011965
| 69>      2      14.8461760530     -2.8094143356
| 70>      3       7.0636826784      1.3180348276
| 71>     p 3
| 72>      1       2.5881255616      0.2841971176
| 73>      2       1.5020208499      0.5115554398
| 74>      3       0.7673272439      0.2585305412
| 75>     p 1
| 76>      1       0.3279764898      1.0000000000
| 77>     p 1
| 78>      1       0.1382033599      1.0000000000
| 79>     p 1
| 80>      1       0.0551373310      1.0000000000
| 81>   end
| 82>   NewAuxGTO 83
| 83>     S 1
| 84>      1 1310.72 1.0
| 85>     S 1
| 86>      1  655.36 1.0
| 87>     S 1
| 88>      1  327.68 1.0
| 89>     S 1
| 90>      1  163.84 1.0
| 91>     S 1
| 92>      1   81.82 1.0
| 93>     S 1
| 94>      1   40.96 1.0
| 95>     S 1
| 96>      1   20.48 1.0
| 97>     S 1
| 98>      1   10.24 1.0
| 99>     S 1
|100>      1    5.12 1.0
|101>     S 1
|102>      1    2.56 1.0
|103>     S 1
|104>      1    1.28 1.0
|105>     S 1
|106>      1    0.64 1.0
|107>     S 1
|108>      1    0.32 1.0
|109>     S 1
|110>      1    0.16 1.0
|111>     S 1
|112>      1    0.08 1.0
|113>     S 1
|114>      1    0.04 1.0
|115>     S 1
|116>      1    0.02 1.0
|117>     S 1
|118>      1    0.01 1.0
|119>   end
|120> end
|121>
|122> * xyz 0 4
|123> 83  0.0 0.0 0.0
|124> *
|125>
|126>
|127>                          ****END OF INPUT****

CARTESIAN COORDINATES (ANGSTROEM)
---------------------------------
  Bi     0.000000    0.000000    0.000000

 Total Charge           Charge          ....    0
 Multiplicity           Mult            ....    4
 Number of Electrons    NEL             ....   23
 Basis Dimension        Dim             ....   21

ORBITAL ENERGIES
----------------

  NO   OCC          E(Eh)            E(eV)
   0   2.0000     -10.032120      -272.9879
   1   2.0000      -7.258944      -197.5259
   2   2.0000      -7.258944      -197.5259
   3   2.0000      -7.253685      -197.3828
   4   2.0000      -2.523166       -68.6588
   5   2.0000      -1.519851       -41.3573
   6   2.0000      -1.519851       -41.3573
   7   2.0000      -1.506808       -41.0023
   8   2.0000      -0.441991       -12.0272
   9   2.0000      -0.185440        -5.0461
  10   1.0000      -0.234953        -6.3934
  11   1.0000      -0.234953        -6.3934
  12   1.0000       0.831406        22.6237
  13   0.0000       0.318844         8.6762
  14   0.0000       0.318844         8.6762
  15   0.0000       0.342261         9.3134
  16   0.0000      31.967209       869.8720
  17   0.0000      31.967209       869.8720

CleanUpVectors: The p-vectors have cracked symmetry
CleanUpVectors: The p-vectors have cracked symmetry
CleanUpVectors: The p-vectors have cracked symmetry
CleanUpVectors: The p-vectors have cracked symmetry
CleanUpVectors: The p-vectors have cracked symmetry
CleanUpVectors: The p-vectors have cracked symmetry
CleanUpVectors: The p-vectors have cracked symmetry
CleanUpVectors: The p-vectors have cracked symmetry
CleanUpVectors: The p-vectors have cracked symmetry
CleanUpVectors: The p-vectors have cracked symmetry
CleanUpVectors: The p-vectors have cracked symmetry
CleanUpVectors: The p-vectors have cracked symmetry
CleanUpVectors: The p-vectors have cracked symmetry
CleanUpVectors: The p-vectors have cracked symmetry
CleanUpVectors: The p-vectors have cracked symmetry
--------------------------
ATOM BASIS FOR ELEMENT Bi
--------------------------
 NewGTO Bi
 S 10
    1        716.414353100000         0.000472916341
    2         83.806059047000         0.002666845335
    3         21.116962853000        -0.331540253500
    4         15.491448187000         0.611471766841
    5         23.239855029000         0.074615845169
    6          6.647425500000        -1.070092760349
    7          1.761774400500         1.248290422215
    8          0.872528660000         0.227224989132
    9          0.256188960000        -0.002096715195
   10          0.097073913000         0.000958195534
 P 19
    1         15.249644669000         0.123699401480
    2         14.846176053000        -0.141979287471
    3          7.063682678400         0.066609486295
    4         15.249644669000         0.078555405246
    5         14.846176053000        -0.090164061672
    6          7.063682678400         0.042300408301
    7         15.249644669000        -0.737334500591
    8         14.846176053000         0.846295339911
    9          7.063682678400        -0.397038883978
   10          2.588125561600        -0.057132938751
   11          1.502020849900        -0.102839416025
   12          0.767327243900        -0.051973115352
   13          2.588125561600        -0.036282319096
   14          1.502020849900        -0.065308254563
   15          0.767327243900        -0.033005569061
   16          2.588125561600         0.340552067007
   17          1.502020849900         0.612994473285
   18          0.767327243900         0.309795929436
   19          0.327976489800         0.026161530426
 S 10
    1        716.414353100000        -0.000319761700
    2         83.806059047000        -0.001803183615
    3         21.116962853000         0.224170462757
    4         15.491448187000        -0.413445750519
    5         23.239855029000        -0.058898427552
    6          6.647425500000         0.844683602739
    7          1.761774400500        -1.945168716879
    8          0.872528660000         0.820048090141
    9          0.256188960000         1.123889028721
   10          0.097073913000        -0.170723404137
 P 19
    1         15.249644669000         0.062701159843
    2         14.846176053000        -0.071966928632
    3          7.063682678400         0.033763235693
    4         15.249644669000         0.039884084574
    5         14.846176053000        -0.045778021895
    6          7.063682678400         0.021476727883
    7         15.249644669000        -0.373909734853
    8         14.846176053000         0.429164871439
    9          7.063682678400        -0.201342407978
   10          2.588125561600        -0.038305199420
   11          1.502020849900        -0.068949443617
   12          0.767327243900        -0.034845757834
   13          2.588125561600        -0.024365862085
   14          1.502020849900        -0.043858605606
   15          0.767327243900        -0.022165318090
   16          2.588125561600         0.228427783390
   17          1.502020849900         0.411170514963
   18          0.767327243900         0.207797879738
   19          0.327976489800         0.237857649647
 S 10
    1        716.414353100000         0.004421061410
    2         83.806059047000         0.024931020534
    3         21.116962853000        -3.099406162897
    4         15.491448187000         5.716347691055
    5         23.239855029000         0.351043575029
    6          6.647425500000        -5.034442581898
    7          1.761774400500         3.710660135327
    8          0.872528660000        -2.627039819766
    9          0.256188960000         0.868296669503
   10          0.097073913000        -0.296825965732
 S 10
    1        716.414353100000         0.004146398288
    2         83.806059047000         0.023382154477
    3         21.116962853000        -2.906852272173
    4         15.491448187000         5.361213536061
    5         23.239855029000         0.168179835442
    6          6.647425500000        -2.411927706972
    7          1.761774400500         1.209435852988
    8          0.872528660000        -0.800417260996
    9          0.256188960000         0.254981010811
   10          0.097073913000        -0.086797156063
 P 19
    1         21.116962853000         0.000000011426
    2         15.491448187000        -0.000000024603
    3         23.239855029000        -0.000000003195
    4          6.647425500000         0.000000085687
    5          1.761774400500        -0.000000404413
    6          0.872528660000         0.000000251544
    7          0.256188960000         0.000000590113
    8         15.249644669000         0.193241487645
    9         14.846176053000        -0.221798071758
   10          7.063682678400         0.104056414736
   11         15.249644669000        -0.328605215312
   12         14.846176053000         0.377165400732
   13          7.063682678400        -0.176946891611
   14         15.249644669000        -0.002646769265
   15         14.846176053000         0.003037900021
   16          7.063682678400        -0.001425228732
   17          2.588125561600        -0.118054494353
   18          1.502020849900        -0.212498350754
   19          0.767327243900        -0.107392687772
 P 19
    1         15.249644669000         0.024209176616
    2         14.846176053000        -0.027786728191
    3          7.063682678400         0.013036124660
    4         15.249644669000         0.015377879510
    5         14.846176053000        -0.017650371380
    6          7.063682678400         0.008280659746
    7         15.249644669000        -0.144313269581
    8         14.846176053000         0.165639404417
    9          7.063682678400        -0.077709614092
   10          2.588125561600        -0.015786407560
   11          1.502020849900        -0.028415568499
   12          0.767327243900        -0.014360696282
   13          2.588125561600        -0.010027663361
   14          1.502020849900        -0.018049816213
   15          0.767327243900        -0.009122039159
   16          2.588125561600         0.094104319451
   17          1.502020849900         0.169387982997
   18          0.767327243900         0.085605515082
   19          0.327976489800         0.158754691823
 P 19
    1        716.414353100000         0.000000000676
    2         83.806059047000         0.000000011139
    3         21.116962853000        -0.000002758682
    4         15.491448187000         0.000005940342
    5         23.239855029000         0.000000723882
    6          6.647425500000        -0.000019411000
    7          1.761774400500         0.000135647578
    8          0.872528660000        -0.000237954466
    9          0.256188960000         0.000274271998
   10          0.097073913000        -0.000195988586
   11         15.249644669000         0.102949384856
   12         14.846176053000        -0.118162902429
   13          7.063682678400         0.055436045427
   14         15.249644669000        -0.175071240515
   15         14.846176053000         0.200942685960
   16          7.063682678400        -0.094272124653
   17         15.249644669000        -0.001392644000
   18         14.846176053000         0.001598444297
   19          7.063682678400        -0.000749909057
 P 19
    1        716.414353100000        -0.000000000051
    2         83.806059047000        -0.000000000833
    3         21.116962853000         0.000000206387
    4         15.491448187000        -0.000000444419
    5         23.239855029000        -0.000000022266
    6          6.647425500000         0.000000597074
    7          1.761774400500        -0.000000850007
    8          0.872528660000         0.000000851482
    9          0.256188960000        -0.000000516229
   10         15.249644669000         0.142930435481
   11         14.846176053000        -0.164052219694
   12          7.063682678400         0.076964987457
   13         15.249644669000         0.936391657707
   14         14.846176053000        -1.074768501425
   15          7.063682678400         0.504226912540
   16         15.249644669000        -3.005180318525
   17         14.846176053000         3.449275867495
   18          7.063682678400        -1.618225430742
   19          2.588125561600        -0.009645737057
 end
  // -----------------------------------------------
  // The basis set
  // -----------------------------------------------
  BAS[ATNO] = new BFNGauss[NSH];
  // Basis function   1 L = s
  InitBFNGauss(BAS[ATNO][  0]);
  BAS[ATNO][  0].l  = 0;
  BAS[ATNO][  0].ng = 10;
  BAS[ATNO][  0].a[  0] =       716.414353100000;     BAS[ATNO][  0].d[  0] =         0.000472916341;
  BAS[ATNO][  0].a[  1] =        83.806059047000;     BAS[ATNO][  0].d[  1] =         0.002666845335;
  BAS[ATNO][  0].a[  2] =        21.116962853000;     BAS[ATNO][  0].d[  2] =        -0.331540253500;
  BAS[ATNO][  0].a[  3] =        15.491448187000;     BAS[ATNO][  0].d[  3] =         0.611471766841;
  BAS[ATNO][  0].a[  4] =        23.239855029000;     BAS[ATNO][  0].d[  4] =         0.074615845169;
  BAS[ATNO][  0].a[  5] =         6.647425500000;     BAS[ATNO][  0].d[  5] =        -1.070092760349;
  BAS[ATNO][  0].a[  6] =         1.761774400500;     BAS[ATNO][  0].d[  6] =         1.248290422215;
  BAS[ATNO][  0].a[  7] =         0.872528660000;     BAS[ATNO][  0].d[  7] =         0.227224989132;
  BAS[ATNO][  0].a[  8] =         0.256188960000;     BAS[ATNO][  0].d[  8] =        -0.002096715195;
  BAS[ATNO][  0].a[  9] =         0.097073913000;     BAS[ATNO][  0].d[  9] =         0.000958195534;

FINAL SINGLE POINT ENERGY      -190.924339296848

DIPOLE MOMENT
-------------
                                X             Y             Z
Electronic contribution:      0.00005       0.00000      -0.00003
Nuclear contribution   :      0.00000       0.00000       0.00000
                        -----------------------------------------
Total Dipole Moment    :      0.00005       0.00000      -0.00003
                        -----------------------------------------
Magnitude (a.u.)       :      0.00006
Magnitude (Debye)      :      0.00016

Rotational constants in cm-1:     0.000000     0.000000     0.000000
Rotational constants in MHz :     0.000000     0.000000     0.000000

                             ****ORCA TERMINATED NORMALLY****
TOTAL RUN TIME: 0 days 0 hours 0 minutes 1 seconds 10 msec
