                         Program Version 4.2.0 -  RELEASE  -
|  1> #
|  2> # 83_Bi CCSD(T)/Def2-TZVP
|  3> #
|  4> ! CCSD(T) Def2-TZVP tightscf
|  5>
|  6> *xyz 0 4
|  7>  Bi 0.0 0.0 0.0
|  8> *
|  9>
| 10> %maxcore 5000
| 11>
| 12> %pal
| 13> nprocs 24
| 14> end
| 15>
| 16>
| 17>                          ****END OF INPUT****

CARTESIAN COORDINATES (ANGSTROEM)
---------------------------------
  Bi     0.000000    0.000000    0.000000

 Total Charge           Charge          ....    0
 Multiplicity           Mult            ....    4
 Number of Electrons    NEL             ....   23
 Basis Dimension        Dim             ....   50

ORBITAL ENERGIES
----------------
                 SPIN UP ORBITALS
  NO   OCC          E(Eh)            E(eV)
   0   1.0000      -6.685286      -181.9159
   1   1.0000      -4.259853      -115.9165
   2   1.0000      -4.259853      -115.9165
   3   1.0000      -4.259853      -115.9165
   4   1.0000      -1.314981       -35.7824
   5   1.0000      -1.314981       -35.7824
   6   1.0000      -1.314981       -35.7824
   7   1.0000      -1.314981       -35.7824
   8   1.0000      -1.314981       -35.7824
   9   1.0000      -0.779670       -21.2159
  10   1.0000      -0.318907        -8.6779
  11   1.0000      -0.318907        -8.6779
  12   1.0000      -0.318907        -8.6779
  13   0.0000       0.197743         5.3809
  14   0.0000       0.197743         5.3809
  15   0.0000       0.197743         5.3809
  16   0.0000       0.297963         8.1080
  17   0.0000       0.297963         8.1080

                 SPIN DOWN ORBITALS
  NO   OCC          E(Eh)            E(eV)
   0   1.0000      -6.674076      -181.6108
   1   1.0000      -4.251701      -115.6947
   2   1.0000      -4.251701      -115.6947
   3   1.0000      -4.251701      -115.6947
   4   1.0000      -1.301082       -35.4043
   5   1.0000      -1.301082       -35.4043
   6   1.0000      -1.301082       -35.4043
   7   1.0000      -1.301082       -35.4043
   8   1.0000      -1.301082       -35.4043
   9   1.0000      -0.577035       -15.7019
  10   0.0000       0.030975         0.8429
  11   0.0000       0.030975         0.8429
  12   0.0000       0.030975         0.8429
  13   0.0000       0.249361         6.7855
  14   0.0000       0.249361         6.7855

E(0)                                       ...   -213.593784069
E(0)                                       ...   -213.593784069
E(CORR)                                    ...     -0.343676983
E(TOT)                                     ...   -213.937461052
E(CCSD(T))                                 ...   -213.943083373

MULLIKEN ATOMIC CHARGES AND SPIN DENSITIES
------------------------------------------
   0 Bi:    0.000000    3.000000
Sum of atomic charges       :    0.0000000

LOEWDIN ATOMIC CHARGES AND SPIN DENSITIES
-----------------------------------------
   0 Bi:   -0.000000    3.000000

FINAL SINGLE POINT ENERGY      -213.943083372761

DIPOLE MOMENT
-------------
                                X             Y             Z
Electronic contribution:      0.00000      -0.00000       0.00000
Nuclear contribution   :      0.00000       0.00000       0.00000
                        -----------------------------------------
Total Dipole Moment    :      0.00000      -0.00000       0.00000
                        -----------------------------------------
Magnitude (a.u.)       :      0.00000
Magnitude (Debye)      :      0.00000

Rotational constants in cm-1:     0.000000     0.000000     0.000000
Rotational constants in MHz :     0.000000     0.000000     0.000000

                             ****ORCA TERMINATED NORMALLY****
TOTAL RUN TIME: 0 days 0 hours 0 minutes 12 seconds 684 msec
