                         Program Version 4.2.0 -  RELEASE  -
|  1> # input to generate an atomic fitting density for Po
|  2> # this file is use internally by ORCA
|  3> #
|  4> # atomic ground state (S=3): 1s2 2s2 2p6 3s2 3p6 4s2 3d10 4p6 5s2 4d10 5p6 6s2 4f14 5d10 6p4
|  5> #
|  6> ! RHF AllowRHF def2-SVP def2/J  NoMulliken NoLoewdin NoMayer NoPrintMOs
|  7>
|  8> %output print[p_atomdensfit] 2 end
|  9>
| 10> %scf
| 11>   guess hcore
| 12>   maxiter 1000
| 13>   maxdisk 500000
| 14>   SCFMode Conventional
| 15>   lshift 1.000000
| 16>   hftyp rohf
| 17>   rohf_case sahf
| 18>   rohf_numop   2
| 19>   rohf_norb[1] 3
| 20>   rohf_nel[1]  4
| 21> end
| 22>
| 23> %basis
| 24>   NewECP 84
| 25>     N_core 60
| 26>     lmax f
| 27>     s 6
| 28>       1      13.2772270000    283.2447060000  2
| 29>       2       8.3995180000     62.3964610000  2
| 30>       3       5.0132700000    -17.4282950000  2
| 31>       4       4.9846400000    -23.3803530000  2
| 32>       5       1.3267600000     -0.1633920000  2
| 33>       6       1.5287580000     -0.3245660000  2
| 34>     p 8
| 35>       1      10.6656820000     71.9917160000  2
| 36>       2       9.2837530000    143.9718710000  2
| 37>       3       6.8727490000      4.9496150000  2
| 38>       4       6.3261500000      9.7404990000  2
| 39>       5       5.0132700000    -17.4282950000  2
| 40>       6       4.9846400000    -23.3803530000  2
| 41>       7       1.3267600000     -0.1633920000  2
| 42>       8       1.5287580000     -0.3245660000  2
| 43>     d 8
| 44>       1       8.2148660000     36.3783830000  2
| 45>       2       8.0086960000     54.5627150000  2
| 46>       3       5.0552270000      9.8894990000  2
| 47>       4       4.7825530000     14.6938770000  2
| 48>       5       5.0132700000    -17.4282950000  2
| 49>       6       4.9846400000    -23.3803530000  2
| 50>       7       1.3267600000     -0.1633920000  2
| 51>       8       1.5287580000     -0.3245660000  2
| 52>     f 4
| 53>       1       5.0132700000     17.4282950000  2
| 54>       2       4.9846400000     23.3803530000  2
| 55>       3       1.3267600000      0.1633920000  2
| 56>       4       1.5287580000      0.3245660000  2
| 57>   end
| 58>   NewGTO 84
| 59>     s 5
| 60>      1    6744.8211765000      0.0002667131
| 61>      2     744.4189253200      0.0024726498
| 62>      3     131.0402930900      0.0076510921
| 63>      4      19.6620210300     -2.2326123855
| 64>      5      16.6230256090      3.1910959564
| 65>     s 2
| 66>      1      23.0940029650     -0.0760848894
| 67>      2       6.9707398381      1.0578437560
| 68>     s 1
| 69>      1       1.8497377593      1.0000000000
| 70>     s 1
| 71>      1       0.9308299926      1.0000000000
| 72>     s 1
| 73>      1       0.2867302646      1.0000000000
| 74>     s 1
| 75>      1       0.1097921217      1.0000000000
| 76>     p 3
| 77>      1     253.9902449700      0.0003988866
| 78>      2       9.8712718748      1.1685916546
| 79>      3       7.4489893496     -2.1066457855
| 80>     p 4
| 81>      1       8.9027395407     -0.1226383198
| 82>      2       5.7414667465      0.2337889888
| 83>      3       1.9896329823      0.5886127763
| 84>      4       0.9470321082      0.3514926778
| 85>     p 1
| 86>      1       0.3707113628      1.0000000000
| 87>     p 1
| 88>      1       0.1555470609      1.0000000000
| 89>     p 1
| 90>      1       0.0611737208      1.0000000000
| 91>   end
| 92>   NewAuxGTO 84
| 93>     S 1
| 94>      1 1310.72 1.0
| 95>     S 1
| 96>      1  655.36 1.0
| 97>     S 1
| 98>      1  327.68 1.0
| 99>     S 1
|100>      1  163.84 1.0
|101>     S 1
|102>      1   81.82 1.0
|103>     S 1
|104>      1   40.96 1.0
|105>     S 1
|106>      1   20.48 1.0
|107>     S 1
|108>      1   10.24 1.0
|109>     S 1
|110>      1    5.12 1.0
|111>     S 1
|112>      1    2.56 1.0
|113>     S 1
|114>      1    1.28 1.0
|115>     S 1
|116>      1    0.64 1.0
|117>     S 1
|118>      1    0.32 1.0
|119>     S 1
|120>      1    0.16 1.0
|121>     S 1
|122>      1    0.08 1.0
|123>     S 1
|124>      1    0.04 1.0
|125>     S 1
|126>      1    0.02 1.0
|127>     S 1
|128>      1    0.01 1.0
|129>   end
|130> end
|131>
|132> * xyz 0 3
|133> 84  0.0 0.0 0.0
|134> *
|135>
|136>
|137>                          ****END OF INPUT****

CARTESIAN COORDINATES (ANGSTROEM)
---------------------------------
  Po     0.000000    0.000000    0.000000

 Total Charge           Charge          ....    0
 Multiplicity           Mult            ....    3
 Number of Electrons    NEL             ....   24
 Basis Dimension        Dim             ....   21

ORBITAL ENERGIES
----------------

  NO   OCC          E(Eh)            E(eV)
   0   2.0000     -10.746774      -292.4346
   1   2.0000      -7.823465      -212.8873
   2   2.0000      -7.823465      -212.8873
   3   2.0000      -7.819568      -212.7813
   4   2.0000      -2.767153       -75.2981
   5   2.0000      -1.696350       -46.1600
   6   2.0000      -1.696350       -46.1600
   7   2.0000      -1.687242       -45.9122
   8   2.0000      -0.501646       -13.6505
   9   2.0000      -0.214126        -5.8267
  10   1.3333      -0.241200        -6.5634
  11   1.3333      -0.241200        -6.5634
  12   1.3333       0.958147        26.0725
  13   0.0000       0.309453         8.4206
  14   0.0000       0.309453         8.4206
  15   0.0000       0.322550         8.7770
  16   0.0000      27.264337       741.9003
  17   0.0000      27.264337       741.9003

CleanUpVectors: The p-vectors have cracked symmetry
CleanUpVectors: The p-vectors have cracked symmetry
CleanUpVectors: The p-vectors have cracked symmetry
CleanUpVectors: The p-vectors have cracked symmetry
CleanUpVectors: The p-vectors have cracked symmetry
CleanUpVectors: The p-vectors have cracked symmetry
CleanUpVectors: The p-vectors have cracked symmetry
CleanUpVectors: The p-vectors have cracked symmetry
CleanUpVectors: The p-vectors have cracked symmetry
CleanUpVectors: The p-vectors have cracked symmetry
CleanUpVectors: The p-vectors have cracked symmetry
CleanUpVectors: The p-vectors have cracked symmetry
CleanUpVectors: The p-vectors have cracked symmetry
CleanUpVectors: The p-vectors have cracked symmetry
CleanUpVectors: The p-vectors have cracked symmetry
--------------------------
ATOM BASIS FOR ELEMENT Po
--------------------------
 NewGTO Po
 S 11
    1       6744.821176500000         0.000081843775
    2        744.418925320000         0.000758759111
    3        131.040293090000         0.002347819670
    4         19.662021030000        -0.685101055682
    5         16.623025609000         0.979222019331
    6         23.094002965000         0.078660730179
    7          6.970739838100        -1.093656873513
    8          1.849737759300         1.268484516339
    9          0.930829992600         0.210589320029
   10          0.286730264600         0.002741697641
   11          0.109792121700        -0.000699446853
 P 21
    1        253.990244970000         0.000005458132
    2          9.871271874800         0.015990329099
    3          7.448989349600        -0.028826116696
    4        253.990244970000         0.000045576870
    5          9.871271874800         0.133523538654
    6          7.448989349600        -0.240705809307
    7        253.990244970000        -0.000149733214
    8          9.871271874800        -0.438663479674
    9          7.448989349600         0.790788268143
   10          8.902739540700        -0.005497702355
   11          5.741466746500         0.010480429578
   12          1.989632982300         0.026386677929
   13          0.947032108200         0.015756919416
   14          8.902739540700        -0.045907289857
   15          5.741466746500         0.087514399184
   16          1.989632982300         0.220335841027
   17          0.947032108200         0.131574505169
   18          8.902739540700         0.150818737387
   19          5.741466746500        -0.287510136825
   20          1.989632982300        -0.723867025216
   21          0.947032108200        -0.432260340429
 S 11
    1       6744.821176500000         0.000056355087
    2        744.418925320000         0.000522458010
    3        131.040293090000         0.001616635868
    4         19.662021030000        -0.471739356348
    5         16.623025609000         0.674261937403
    6         23.094002965000         0.063481572985
    7          6.970739838100        -0.882613960973
    8          1.849737759300         2.045867175666
    9          0.930829992600        -0.887776921752
   10          0.286730264600        -1.108337041591
   11          0.109792121700         0.152044829535
 P 21
    1        253.990244970000        -0.000016438740
    2          9.871271874800        -0.048159488880
    3          7.448989349600         0.086818166021
    4        253.990244970000         0.000034500139
    5          9.871271874800         0.101072771103
    6          7.448989349600        -0.182206099483
    7        253.990244970000        -0.000075955881
    8          9.871271874800        -0.222522914377
    9          7.448989349600         0.401146934349
   10          8.902739540700         0.021397032107
   11          5.741466746500        -0.040789783387
   12          1.989632982300        -0.102696828313
   13          0.947032108200        -0.061325857403
   14          8.902739540700        -0.044906152012
   15          5.741466746500         0.085605901050
   16          1.989632982300         0.215530796994
   17          0.947032108200         0.128705152240
   18          8.902739540700         0.098865873667
   19          5.741466746500        -0.188470884705
   20          1.989632982300        -0.474514951570
   21          0.947032108200        -0.283358665831
 S 11
    1       6744.821176500000         0.000763112034
    2        744.418925320000         0.007074676190
    3        131.040293090000         0.021891089917
    4         19.662021030000        -6.387887878230
    5         16.623025609000         9.130274162477
    6         23.094002965000         0.376090415470
    7          6.970739838100        -5.228960715245
    8          1.849737759300         3.946926382303
    9          0.930829992600        -2.878317791665
   10          0.286730264600         0.968811506371
   11          0.109792121700        -0.321746368478
 S 11
    1       6744.821176500000         0.000701771340
    2        744.418925320000         0.006505997511
    3        131.040293090000         0.020131433960
    4         19.662021030000        -5.874414816864
    5         16.623025609000         8.396361809178
    6         23.094002965000         0.178784193008
    7          6.970739838100        -2.485720144121
    8          1.849737759300         1.247161638520
    9          0.930829992600        -0.845242293751
   10          0.286730264600         0.272834235094
   11          0.109792121700        -0.090089030071
 P 21
    1         19.662021030000         0.000000002518
    2         16.623025609000        -0.000000003914
    3          6.970739838100         0.000000008687
    4          1.849737759300        -0.000000042600
    5        253.990244970000        -0.000072235963
    6          9.871271874800        -0.211624916403
    7          7.448989349600         0.381500874571
    8        253.990244970000         0.000032839836
    9          9.871271874800         0.096208692788
   10          7.448989349600        -0.173437518907
   11        253.990244970000         0.000030549934
   12          9.871271874800         0.089500117542
   13          7.448989349600        -0.161343823293
   14          8.902739540700         0.094023944943
   15          5.741466746500        -0.179240575434
   16          1.989632982300        -0.451275713511
   17          0.947032108200        -0.269481253813
   18          8.902739540700        -0.042745065125
   19          5.741466746500         0.081486158389
   20          1.989632982300         0.205158481438
   21          0.947032108200         0.122511278922
 P 21
    1        253.990244970000        -0.000012241753
    2          9.871271874800        -0.035863854174
    3          7.448989349600         0.064652555878
    4        253.990244970000         0.000016216409
    5          9.871271874800         0.047508140199
    6          7.448989349600        -0.085643965480
    7        253.990244970000        -0.000027496289
    8          9.871271874800        -0.080554056401
    9          7.448989349600         0.145216562821
   10          8.902739540700         0.016966201352
   11          5.741466746500        -0.032343162108
   12          1.989632982300        -0.081430689017
   13          0.947032108200        -0.048626689888
   14          8.902739540700        -0.022474792268
   15          5.741466746500         0.042844348866
   16          1.989632982300         0.107869627496
   17          0.947032108200         0.064414816920
   18          8.902739540700         0.038107904800
   19          5.741466746500        -0.072646205062
   20          1.989632982300        -0.182902046279
   21          0.947032108200        -0.109220751927
 P 21
    1       6744.821176500000         0.000000000003
    2        744.418925320000         0.000000000079
    3        131.040293090000         0.000000000581
    4         19.662021030000        -0.000000437368
    5         16.623025609000         0.000000679881
    6         23.094002965000         0.000000056824
    7          6.970739838100        -0.000001438032
    8          1.849737759300         0.000010256399
    9          0.930829992600        -0.000018192130
   10          0.286730264600         0.000020534528
   11          0.109792121700        -0.000014262026
   12        253.990244970000        -0.000037932135
   13          9.871271874800        -0.111127262974
   14          7.448989349600         0.200331552324
   15        253.990244970000         0.000015413735
   16          9.871271874800         0.045156597831
   17          7.448989349600        -0.081404788519
   18        253.990244970000         0.000021658826
   19          9.871271874800         0.063452428089
   20          7.448989349600        -0.114387082680
   21          8.902739540700         0.053641038122
 P 21
    1         19.662021030000        -0.000000003718
    2         16.623025609000         0.000000005779
    3        253.990244970000        -0.000347339685
    4          9.871271874800        -1.017578072635
    5          7.448989349600         1.834410291820
    6        253.990244970000         0.000312385918
    7          9.871271874800         0.915176336636
    8          7.448989349600        -1.649808438195
    9        253.990244970000        -0.000326987038
   10          9.871271874800        -0.957952269725
   11          7.448989349600         1.726921550211
   12          8.902739540700         0.071720879403
   13          5.741466746500        -0.136723594215
   14          1.989632982300        -0.344230302674
   15          0.947032108200        -0.205558621455
   16          8.902739540700        -0.064503406115
   17          5.741466746500         0.122964715387
   18          1.989632982300         0.309589441668
   19          0.947032108200         0.184872680737
   20          8.902739540700         0.067518336979
   21          5.741466746500        -0.128712165607
 end
  // -----------------------------------------------
  // The basis set
  // -----------------------------------------------
  BAS[ATNO] = new BFNGauss[NSH];
  // Basis function   1 L = s
  InitBFNGauss(BAS[ATNO][  0]);
  BAS[ATNO][  0].l  = 0;
  BAS[ATNO][  0].ng = 11;
  BAS[ATNO][  0].a[  0] =      6744.821176500000;     BAS[ATNO][  0].d[  0] =         0.000081843775;
  BAS[ATNO][  0].a[  1] =       744.418925320000;     BAS[ATNO][  0].d[  1] =         0.000758759111;
  BAS[ATNO][  0].a[  2] =       131.040293090000;     BAS[ATNO][  0].d[  2] =         0.002347819670;
  BAS[ATNO][  0].a[  3] =        19.662021030000;     BAS[ATNO][  0].d[  3] =        -0.685101055682;
  BAS[ATNO][  0].a[  4] =        16.623025609000;     BAS[ATNO][  0].d[  4] =         0.979222019331;
  BAS[ATNO][  0].a[  5] =        23.094002965000;     BAS[ATNO][  0].d[  5] =         0.078660730179;
  BAS[ATNO][  0].a[  6] =         6.970739838100;     BAS[ATNO][  0].d[  6] =        -1.093656873513;
  BAS[ATNO][  0].a[  7] =         1.849737759300;     BAS[ATNO][  0].d[  7] =         1.268484516339;
  BAS[ATNO][  0].a[  8] =         0.930829992600;     BAS[ATNO][  0].d[  8] =         0.210589320029;
  BAS[ATNO][  0].a[  9] =         0.286730264600;     BAS[ATNO][  0].d[  9] =         0.002741697641;
  BAS[ATNO][  0].a[ 10] =         0.109792121700;     BAS[ATNO][  0].d[ 10] =        -0.000699446853;

FINAL SINGLE POINT ENERGY      -209.689694385101

DIPOLE MOMENT
-------------
                                X             Y             Z
Electronic contribution:     -0.00000       0.00000      -0.00001
Nuclear contribution   :      0.00000       0.00000       0.00000
                        -----------------------------------------
Total Dipole Moment    :     -0.00000       0.00000      -0.00001
                        -----------------------------------------
Magnitude (a.u.)       :      0.00001
Magnitude (Debye)      :      0.00002

Rotational constants in cm-1:     0.000000     0.000000     0.000000
Rotational constants in MHz :     0.000000     0.000000     0.000000

                             ****ORCA TERMINATED NORMALLY****
TOTAL RUN TIME: 0 days 0 hours 0 minutes 0 seconds 987 msec
