                         Program Version 4.2.0 -  RELEASE  -
|  1> #
|  2> # 84_Po CCSD(T)/Def2-TZVP
|  3> #
|  4> ! CCSD(T) Def2-TZVP tightscf
|  5>
|  6> *xyz 0 3
|  7>  Po 0.0 0.0 0.0
|  8> *
|  9>
| 10> %maxcore 5000
| 11>
| 12> %pal
| 13> nprocs 24
| 14> end
| 15>
| 16>
| 17>                          ****END OF INPUT****

CARTESIAN COORDINATES (ANGSTROEM)
---------------------------------
  Po     0.000000    0.000000    0.000000

 Total Charge           Charge          ....    0
 Multiplicity           Mult            ....    3
 Number of Electrons    NEL             ....   24
 Basis Dimension        Dim             ....   50

ORBITAL ENERGIES
----------------
                 SPIN UP ORBITALS
  NO   OCC          E(Eh)            E(eV)
   0   1.0000      -7.245490      -197.1598
   1   1.0000      -4.687102      -127.5425
   2   1.0000      -4.687102      -127.5425
   3   1.0000      -4.668836      -127.0455
   4   1.0000      -1.580513       -43.0079
   5   1.0000      -1.580513       -43.0079
   6   1.0000      -1.563491       -42.5448
   7   1.0000      -1.563491       -42.5448
   8   1.0000      -1.558201       -42.4008
   9   1.0000      -0.882235       -24.0068
  10   1.0000      -0.376465       -10.2441
  11   1.0000      -0.376465       -10.2441
  12   1.0000      -0.325943        -8.8693
  13   0.0000       0.208497         5.6735
  14   0.0000       0.208497         5.6735
  15   0.0000       0.228407         6.2153
  16   0.0000       0.297153         8.0859
  17   0.0000       0.297153         8.0859

                 SPIN DOWN ORBITALS
  NO   OCC          E(Eh)            E(eV)
   0   1.0000      -7.234426      -196.8587
   1   1.0000      -4.674014      -127.1864
   2   1.0000      -4.674014      -127.1864
   3   1.0000      -4.669184      -127.0550
   4   1.0000      -1.563490       -42.5447
   5   1.0000      -1.563490       -42.5447
   6   1.0000      -1.554666       -42.3046
   7   1.0000      -1.554666       -42.3046
   8   1.0000      -1.552050       -42.2334
   9   1.0000      -0.732897       -19.9432
  10   1.0000      -0.291621        -7.9354
  11   0.0000      -0.005929        -0.1613
  12   0.0000      -0.005929        -0.1613
  13   0.0000       0.235165         6.3992
  14   0.0000       0.252488         6.8705
  15   0.0000       0.252488         6.8705

E(0)                                       ...   -236.725761619
E(0)                                       ...   -236.725761619
E(CORR)                                    ...     -0.405910242
E(TOT)                                     ...   -237.131671860
E(CCSD(T))                                 ...   -237.137948508

MULLIKEN ATOMIC CHARGES AND SPIN DENSITIES
------------------------------------------
   0 Po:   -0.000000    2.000000
Sum of atomic charges       :   -0.0000000

LOEWDIN ATOMIC CHARGES AND SPIN DENSITIES
-----------------------------------------
   0 Po:   -0.000000    2.000000

FINAL SINGLE POINT ENERGY      -237.137948507945

DIPOLE MOMENT
-------------
                                X             Y             Z
Electronic contribution:      0.00000       0.00000      -0.00000
Nuclear contribution   :      0.00000       0.00000       0.00000
                        -----------------------------------------
Total Dipole Moment    :      0.00000       0.00000      -0.00000
                        -----------------------------------------
Magnitude (a.u.)       :      0.00000
Magnitude (Debye)      :      0.00000

Rotational constants in cm-1:     0.000000     0.000000     0.000000
Rotational constants in MHz :     0.000000     0.000000     0.000000

                             ****ORCA TERMINATED NORMALLY****
TOTAL RUN TIME: 0 days 0 hours 0 minutes 23 seconds 106 msec
