                         Program Version 4.2.0 -  RELEASE  -
|  1> # input to generate an atomic fitting density for At
|  2> # this file is use internally by ORCA
|  3> #
|  4> # atomic ground state (S=2): 1s2 2s2 2p6 3s2 3p6 4s2 3d10 4p6 5s2 4d10 5p6 6s2 4f14 5d10 6p5
|  5> #
|  6> ! RHF AllowRHF def2-SVP def2/J  NoMulliken NoLoewdin NoMayer NoPrintMOs
|  7>
|  8> %output print[p_atomdensfit] 2 end
|  9>
| 10> %scf
| 11>   guess hcore
| 12>   maxiter 1000
| 13>   maxdisk 500000
| 14>   SCFMode Conventional
| 15>   lshift 1.000000
| 16>   hftyp rohf
| 17>   rohf_case sahf
| 18>   rohf_numop   2
| 19>   rohf_norb[1] 3
| 20>   rohf_nel[1]  5
| 21> end
| 22>
| 23> %basis
| 24>   NewECP 85
| 25>     N_core 60
| 26>     lmax f
| 27>     s 7
| 28>       1      30.2008320000     49.9571580000  2
| 29>       2      13.6123060000    283.2103710000  2
| 30>       3       8.5293400000     62.2810520000  2
| 31>       4       5.8121630000    -19.8701980000  2
| 32>       5       5.7537150000    -26.4164520000  2
| 33>       6       2.5134720000     -0.9949700000  2
| 34>       7       2.5362610000     -1.4907010000  2
| 35>     p 8
| 36>       1      10.8540650000     71.9823710000  2
| 37>       2       9.4682290000    143.9035320000  2
| 38>       3       7.0311140000      4.8717590000  2
| 39>       4       6.1438580000      8.9830590000  2
| 40>       5       5.8121630000    -19.8701980000  2
| 41>       6       5.7537150000    -26.4164520000  2
| 42>       7       2.5134720000     -0.9949700000  2
| 43>       8       2.5362610000     -1.4907010000  2
| 44>     d 8
| 45>       1       8.3135150000     36.3632370000  2
| 46>       2       7.9989650000     54.5489700000  2
| 47>       3       5.1799660000      9.7762850000  2
| 48>       4       4.9422260000     14.2647550000  2
| 49>       5       5.8121630000    -19.8701980000  2
| 50>       6       5.7537150000    -26.4164520000  2
| 51>       7       2.5134720000     -0.9949700000  2
| 52>       8       2.5362610000     -1.4907010000  2
| 53>     f 4
| 54>       1       5.8121630000     19.8701980000  2
| 55>       2       5.7537150000     26.4164520000  2
| 56>       3       2.5134720000      0.9949700000  2
| 57>       4       2.5362610000      1.4907010000  2
| 58>   end
| 59>   NewGTO 85
| 60>     s 5
| 61>      1    3635.9809356000      0.0005061663
| 62>      2     537.6412982300      0.0030580201
| 63>      3      91.6000307560      0.0103842563
| 64>      4      20.2000058040     -2.2052996426
| 65>      5      16.8938738240      3.1573342085
| 66>     s 2
| 67>      1      18.1772169380     -0.1521964109
| 68>      2       7.2317852082      1.1274071816
| 69>     s 1
| 70>      1       1.9496199739      1.0000000000
| 71>     s 1
| 72>      1       0.9922669524      1.0000000000
| 73>     s 1
| 74>      1       0.3195717888      1.0000000000
| 75>     s 1
| 76>      1       0.1234253981      1.0000000000
| 77>     p 3
| 78>      1     216.8151892800      0.0006470485
| 79>      2      10.5922981150      0.8646381039
| 80>      3       7.4596585430     -1.8043415387
| 81>     p 4
| 82>      1       8.9484156471     -0.1382094842
| 83>      2       5.9694592464      0.2490056159
| 84>      3       2.1099088209      0.5861582250
| 85>      4       1.0236370373      0.3503576874
| 86>     p 1
| 87>      1       0.4218635656      1.0000000000
| 88>     p 1
| 89>      1       0.1775713227      1.0000000000
| 90>     p 1
| 91>      1       0.0696708869      1.0000000000
| 92>   end
| 93>   NewAuxGTO 85
| 94>     S 1
| 95>      1 1310.72 1.0
| 96>     S 1
| 97>      1  655.36 1.0
| 98>     S 1
| 99>      1  327.68 1.0
|100>     S 1
|101>      1  163.84 1.0
|102>     S 1
|103>      1   81.82 1.0
|104>     S 1
|105>      1   40.96 1.0
|106>     S 1
|107>      1   20.48 1.0
|108>     S 1
|109>      1   10.24 1.0
|110>     S 1
|111>      1    5.12 1.0
|112>     S 1
|113>      1    2.56 1.0
|114>     S 1
|115>      1    1.28 1.0
|116>     S 1
|117>      1    0.64 1.0
|118>     S 1
|119>      1    0.32 1.0
|120>     S 1
|121>      1    0.16 1.0
|122>     S 1
|123>      1    0.08 1.0
|124>     S 1
|125>      1    0.04 1.0
|126>     S 1
|127>      1    0.02 1.0
|128>     S 1
|129>      1    0.01 1.0
|130>   end
|131> end
|132>
|133> * xyz 0 2
|134> 85  0.0 0.0 0.0
|135> *
|136>
|137>
|138>                          ****END OF INPUT****

CARTESIAN COORDINATES (ANGSTROEM)
---------------------------------
  At     0.000000    0.000000    0.000000

 Total Charge           Charge          ....    0
 Multiplicity           Mult            ....    2
 Number of Electrons    NEL             ....   25
 Basis Dimension        Dim             ....   21

ORBITAL ENERGIES
----------------

  NO   OCC          E(Eh)            E(eV)
   0   2.0000     -11.477190      -312.3102
   1   2.0000      -8.397470      -228.5068
   2   2.0000      -8.397470      -228.5068
   3   2.0000      -8.395315      -228.4481
   4   2.0000      -3.012749       -81.9811
   5   2.0000      -1.876556       -51.0637
   6   2.0000      -1.876556       -51.0637
   7   2.0000      -1.871898       -50.9369
   8   2.0000      -0.561240       -15.2721
   9   2.0000      -0.243504        -6.6261
  10   1.6667      -0.255380        -6.9493
  11   1.6667      -0.255380        -6.9493
  12   1.6667       1.066042        29.0085
  13   0.0000       0.374579        10.1928
  14   0.0000       0.374579        10.1928
  15   0.0000       0.380504        10.3540
  16   0.0000      26.657762       725.3946
  17   0.0000      26.657762       725.3946

CleanUpVectors: The p-vectors have cracked symmetry
CleanUpVectors: The p-vectors have cracked symmetry
CleanUpVectors: The p-vectors have cracked symmetry
CleanUpVectors: The p-vectors have cracked symmetry
CleanUpVectors: The p-vectors have cracked symmetry
CleanUpVectors: The p-vectors have cracked symmetry
CleanUpVectors: The p-vectors have cracked symmetry
CleanUpVectors: The p-vectors have cracked symmetry
CleanUpVectors: The p-vectors have cracked symmetry
CleanUpVectors: The p-vectors have cracked symmetry
CleanUpVectors: The p-vectors have cracked symmetry
CleanUpVectors: The p-vectors have cracked symmetry
CleanUpVectors: The p-vectors have cracked symmetry
CleanUpVectors: The p-vectors have cracked symmetry
CleanUpVectors: The p-vectors have cracked symmetry
--------------------------
ATOM BASIS FOR ELEMENT At
--------------------------
 NewGTO At
 S 11
    1       3635.980935600000         0.000116072087
    2        537.641298230000         0.000701253276
    3         91.600030756000         0.002381277266
    4         20.200005804000        -0.505710736787
    5         16.893873824000         0.724027600613
    6         18.177216938000         0.148705499644
    7          7.231785208200        -1.101547975087
    8          1.949619973900         1.286874402368
    9          0.992266952400         0.200614516202
   10          0.319571788800         0.006752883946
   11          0.123425398100        -0.002019248624
 P 21
    1        216.815189280000         0.000002164813
    2         10.592298115000         0.002892796710
    3          7.459658543000        -0.006036737502
    4        216.815189280000        -0.000001177252
    5         10.592298115000        -0.001573138726
    6          7.459658543000         0.003282852717
    7        216.815189280000        -0.000256781482
    8         10.592298115000        -0.343132012001
    9          7.459658543000         0.716053733600
   10          8.948415647100        -0.001510448911
   11          5.969459246400         0.002721305730
   12          2.109908820900         0.006405942817
   13          1.023637037300         0.003828951323
   14          8.948415647100         0.000821400849
   15          5.969459246400        -0.001479879804
   16          2.109908820900        -0.003483631146
   17          1.023637037300        -0.002082231213
   18          8.948415647100         0.179163427544
   19          5.969459246400        -0.322790435697
   20          2.109908820900        -0.759847396017
   21          1.023637037300        -0.454174939617
 S 11
    1       3635.980935600000        -0.000073968696
    2        537.641298230000        -0.000446884275
    3         91.600030756000        -0.001517505018
    4         20.200005804000         0.322271829258
    5         16.893873824000        -0.461397558544
    6         18.177216938000        -0.121676235612
    7          7.231785208200         0.901326523063
    8          1.949619973900        -2.127487475056
    9          0.992266952400         0.929016877783
   10          0.319571788800         1.101968302571
   11          0.123425398100        -0.135358775103
 P 21
    1        216.815189280000         0.000001230417
    2         10.592298115000         0.001644181295
    3          7.459658543000        -0.003431105563
    4        216.815189280000        -0.000000669195
    5         10.592298115000        -0.000894232225
    6          7.459658543000         0.001866099055
    7        216.815189280000        -0.000145977930
    8         10.592298115000        -0.195067418955
    9          7.459658543000         0.407070016091
   10          8.948415647100        -0.001123749382
   11          5.969459246400         0.002024607129
   12          2.109908820900         0.004765917093
   13          1.023637037300         0.002848677405
   14          8.948415647100         0.000611181330
   15          5.969459246400        -0.001101137048
   16          2.109908820900        -0.002592072211
   17          1.023637037300        -0.001549329834
   18          8.948415647100         0.133322822820
   19          5.969459246400        -0.240201544793
   20          2.109908820900        -0.565433476789
   21          1.023637037300        -0.337970119427
 S 11
    1       3635.980935600000         0.001341091913
    2        537.641298230000         0.008102250241
    3         91.600030756000         0.027513175309
    4         20.200005804000        -5.842960142976
    5         16.893873824000         8.365383815404
    6         18.177216938000         0.742355068521
    7          7.231785208200        -5.499055007924
    8          1.949619973900         4.276539992775
    9          0.992266952400        -3.188559064183
   10          0.319571788800         1.093682151156
   11          0.123425398100        -0.352720921320
 S 11
    1       3635.980935600000         0.001320550045
    2        537.641298230000         0.007978145877
    3         91.600030756000         0.027091748542
    4         20.200005804000        -5.753461938054
    5         16.893873824000         8.237248963095
    6         18.177216938000         0.366978939838
    7          7.231785208200        -2.718426077349
    8          1.949619973900         1.411006553424
    9          0.992266952400        -0.979618345140
   10          0.319571788800         0.322990072988
   11          0.123425398100        -0.103650401859
 P 21
    1         20.200005804000        -0.000000081508
    2         16.893873824000         0.000000127603
    3         18.177216938000         0.000000037546
    4          7.231785208200        -0.000000440947
    5          1.949619973900         0.000002162394
    6          0.992266952400        -0.000001541058
    7          0.319571788800        -0.000002358976
    8        216.815189280000        -0.000141999028
    9         10.592298115000        -0.189750490666
   10          7.459658543000         0.395974559476
   11        216.815189280000         0.000033852120
   12         10.592298115000         0.045235918003
   13          7.459658543000        -0.094399085035
   14        216.815189280000        -0.000001352065
   15         10.592298115000        -0.001806737512
   16          7.459658543000         0.003770330647
   17          8.948415647100         0.129688859350
   18          5.969459246400        -0.233654401395
   19          2.109908820900        -0.550021527386
   20          1.023637037300        -0.328758110245
   21          8.948415647100        -0.030917414702
 P 21
    1        216.815189280000         0.000000509911
    2         10.592298115000         0.000681384493
    3          7.459658543000        -0.001421924778
    4        216.815189280000        -0.000000277314
    5         10.592298115000        -0.000370568781
    6          7.459658543000         0.000773309251
    7        216.815189280000        -0.000060490470
    8         10.592298115000        -0.080832217631
    9          7.459658543000         0.168682050072
   10          8.948415647100        -0.000498614386
   11          5.969459246400         0.000898330408
   12          2.109908820900         0.002114666191
   13          1.023637037300         0.001263975365
   14          8.948415647100         0.000271169842
   15          5.969459246400        -0.000488554124
   16          2.109908820900        -0.001150054457
   17          1.023637037300        -0.000687408967
   18          8.948415647100         0.059150313791
   19          5.969459246400        -0.106568376269
   20          2.109908820900        -0.250861531975
   21          1.023637037300        -0.149944609581
 P 21
    1        216.815189280000         0.000000702722
    2         10.592298115000         0.000939033109
    3          7.459658543000        -0.001959590305
    4        216.815189280000        -0.000000382172
    5         10.592298115000        -0.000510688748
    6          7.459658543000         0.001065713988
    7        216.815189280000        -0.000083363028
    8         10.592298115000        -0.111396364398
    9          7.459658543000         0.232463832715
   10          8.948415647100        -0.000703142106
   11          5.969459246400         0.001266818512
   12          2.109908820900         0.002982085717
   13          1.023637037300         0.001782448170
   14          8.948415647100         0.000382400533
   15          5.969459246400        -0.000688953301
   16          2.109908820900        -0.001621793317
   17          1.023637037300        -0.000969376069
   18          8.948415647100         0.083412899371
   19          5.969459246400        -0.150281151125
   20          2.109908820900        -0.353761229343
   21          1.023637037300        -0.211449675050
 P 21
    1       3635.980935600000        -0.000000000006
    2        537.641298230000        -0.000000000091
    3         91.600030756000        -0.000000000750
    4         20.200005804000         0.000000339268
    5         16.893873824000        -0.000000531137
    6         18.177216938000        -0.000000045238
    7          7.231785208200         0.000000531276
    8          1.949619973900        -0.000000775993
    9          0.992266952400         0.000000815515
   10          0.319571788800        -0.000000529648
   11        216.815189280000        -0.000928377329
   12         10.592298115000        -1.240572249523
   13          7.459658543000         2.588847324073
   14        216.815189280000         0.000221322081
   15         10.592298115000         0.295748316153
   16          7.459658543000        -0.617172629137
   17        216.815189280000        -0.000008854729
   18         10.592298115000        -0.011832398545
   19          7.459658543000         0.024692051046
   20          8.948415647100         0.142573774905
   21          5.969459246400        -0.256868555995
 end
  // -----------------------------------------------
  // The basis set
  // -----------------------------------------------
  BAS[ATNO] = new BFNGauss[NSH];
  // Basis function   1 L = s
  InitBFNGauss(BAS[ATNO][  0]);
  BAS[ATNO][  0].l  = 0;
  BAS[ATNO][  0].ng = 11;
  BAS[ATNO][  0].a[  0] =      3635.980935600000;     BAS[ATNO][  0].d[  0] =         0.000116072087;
  BAS[ATNO][  0].a[  1] =       537.641298230000;     BAS[ATNO][  0].d[  1] =         0.000701253276;
  BAS[ATNO][  0].a[  2] =        91.600030756000;     BAS[ATNO][  0].d[  2] =         0.002381277266;
  BAS[ATNO][  0].a[  3] =        20.200005804000;     BAS[ATNO][  0].d[  3] =        -0.505710736787;
  BAS[ATNO][  0].a[  4] =        16.893873824000;     BAS[ATNO][  0].d[  4] =         0.724027600613;
  BAS[ATNO][  0].a[  5] =        18.177216938000;     BAS[ATNO][  0].d[  5] =         0.148705499644;
  BAS[ATNO][  0].a[  6] =         7.231785208200;     BAS[ATNO][  0].d[  6] =        -1.101547975087;
  BAS[ATNO][  0].a[  7] =         1.949619973900;     BAS[ATNO][  0].d[  7] =         1.286874402368;
  BAS[ATNO][  0].a[  8] =         0.992266952400;     BAS[ATNO][  0].d[  8] =         0.200614516202;
  BAS[ATNO][  0].a[  9] =         0.319571788800;     BAS[ATNO][  0].d[  9] =         0.006752883946;
  BAS[ATNO][  0].a[ 10] =         0.123425398100;     BAS[ATNO][  0].d[ 10] =        -0.002019248624;

FINAL SINGLE POINT ENERGY      -229.543769508594

DIPOLE MOMENT
-------------
                                X             Y             Z
Electronic contribution:      0.00100       0.00000       0.00059
Nuclear contribution   :      0.00000       0.00000       0.00000
                        -----------------------------------------
Total Dipole Moment    :      0.00100       0.00000       0.00059
                        -----------------------------------------
Magnitude (a.u.)       :      0.00116
Magnitude (Debye)      :      0.00295

Rotational constants in cm-1:     0.000000     0.000000     0.000000
Rotational constants in MHz :     0.000000     0.000000     0.000000

                             ****ORCA TERMINATED NORMALLY****
TOTAL RUN TIME: 0 days 0 hours 0 minutes 1 seconds 46 msec
