                         Program Version 4.2.0 -  RELEASE  -
|  1> #
|  2> # 85_At CCSD(T)/Def2-TZVP
|  3> #
|  4> ! CCSD(T) Def2-TZVP tightscf
|  5>
|  6> *xyz 0 2
|  7>  At 0.0 0.0 0.0
|  8> *
|  9>
| 10> %maxcore 5000
| 11>
| 12> %pal
| 13> nprocs 24
| 14> end
| 15>
| 16>
| 17>                          ****END OF INPUT****

CARTESIAN COORDINATES (ANGSTROEM)
---------------------------------
  At     0.000000    0.000000    0.000000

 Total Charge           Charge          ....    0
 Multiplicity           Mult            ....    2
 Number of Electrons    NEL             ....   25
 Basis Dimension        Dim             ....   50

ORBITAL ENERGIES
----------------
                 SPIN UP ORBITALS
  NO   OCC          E(Eh)            E(eV)
   0   1.0000      -7.814722      -212.6494
   1   1.0000      -5.117914      -139.2655
   2   1.0000      -5.096891      -138.6935
   3   1.0000      -5.096891      -138.6935
   4   1.0000      -1.838939       -50.0401
   5   1.0000      -1.832225       -49.8574
   6   1.0000      -1.832225       -49.8574
   7   1.0000      -1.813080       -49.3364
   8   1.0000      -1.813080       -49.3364
   9   1.0000      -0.978161       -26.6171
  10   1.0000      -0.431934       -11.7535
  11   1.0000      -0.377040       -10.2598
  12   1.0000      -0.377040       -10.2598
  13   0.0000       0.231120         6.2891
  14   0.0000       0.251735         6.8501
  15   0.0000       0.251735         6.8501
  16   0.0000       0.336324         9.1518
  17   0.0000       0.348277         9.4771

                 SPIN DOWN ORBITALS
  NO   OCC          E(Eh)            E(eV)
   0   1.0000      -7.807580      -212.4551
   1   1.0000      -5.101532      -138.8197
   2   1.0000      -5.096462      -138.6818
   3   1.0000      -5.096462      -138.6818
   4   1.0000      -1.825768       -49.6817
   5   1.0000      -1.822265       -49.5864
   6   1.0000      -1.822265       -49.5864
   7   1.0000      -1.812716       -49.3265
   8   1.0000      -1.812716       -49.3265
   9   1.0000      -0.897339       -24.4178
  10   1.0000      -0.358529        -9.7561
  11   1.0000      -0.358529        -9.7561
  12   0.0000      -0.046837        -1.2745
  13   0.0000       0.255102         6.9417
  14   0.0000       0.255102         6.9417
  15   0.0000       0.269803         7.3417
  16   0.0000       0.378900        10.3104

E(0)                                       ...   -261.360359179
E(0)                                       ...   -261.360359179
E(CORR)                                    ...     -0.456946511
E(TOT)                                     ...   -261.817305690
E(CCSD(T))                                 ...   -261.824678991

MULLIKEN ATOMIC CHARGES AND SPIN DENSITIES
------------------------------------------
   0 At:   -0.000000    1.000000
Sum of atomic charges       :   -0.0000000

LOEWDIN ATOMIC CHARGES AND SPIN DENSITIES
-----------------------------------------
   0 At:   -0.000000    1.000000

FINAL SINGLE POINT ENERGY      -261.824678990887

DIPOLE MOMENT
-------------
                                X             Y             Z
Electronic contribution:      0.00000      -0.00000       0.00000
Nuclear contribution   :      0.00000       0.00000       0.00000
                        -----------------------------------------
Total Dipole Moment    :      0.00000      -0.00000       0.00000
                        -----------------------------------------
Magnitude (a.u.)       :      0.00000
Magnitude (Debye)      :      0.00000

Rotational constants in cm-1:     0.000000     0.000000     0.000000
Rotational constants in MHz :     0.000000     0.000000     0.000000

                             ****ORCA TERMINATED NORMALLY****
TOTAL RUN TIME: 0 days 0 hours 0 minutes 12 seconds 672 msec
