                         Program Version 4.2.0 -  RELEASE  -
|  1> # input to generate an atomic fitting density for Rn
|  2> # this file is use internally by ORCA
|  3> #
|  4> # atomic ground state (S=1): 1s2 2s2 2p6 3s2 3p6 4s2 3d10 4p6 5s2 4d10 5p6 6s2 4f14 5d10 6p6
|  5> #
|  6> ! RHF AllowRHF def2-SVP def2/J  NoMulliken NoLoewdin NoMayer NoPrintMOs
|  7>
|  8> %output print[p_atomdensfit] 2 end
|  9>
| 10> %scf
| 11>   guess hcore
| 12>   maxiter 1000
| 13>   maxdisk 500000
| 14>   SCFMode Conventional
| 15>   lshift 1.000000
| 16>   hftyp rohf
| 17>   rohf_case sahf
| 18>   rohf_numop   2
| 19>   rohf_norb[1] 3
| 20>   rohf_nel[1]  6
| 21> end
| 22>
| 23> %basis
| 24>   NewECP 86
| 25>     N_core 60
| 26>     lmax f
| 27>     s 7
| 28>       1      30.1512420000     49.9655510000  2
| 29>       2      14.5212410000    283.0700000000  2
| 30>       3       8.0520380000     62.0028700000  2
| 31>       4       6.3485710000    -21.7972900000  2
| 32>       5       6.2959490000    -28.9468050000  2
| 33>       6       2.8821180000     -1.4473650000  2
| 34>       7       2.9080480000     -2.1779640000  2
| 35>     p 8
| 36>       1      11.0099420000     71.9691190000  2
| 37>       2       9.6176250000    143.8605590000  2
| 38>       3       7.3360080000      4.7147610000  2
| 39>       4       6.4062530000      9.0130650000  2
| 40>       5       6.3485710000    -21.7972900000  2
| 41>       6       6.2959490000    -28.9468050000  2
| 42>       7       2.8821180000     -1.4473650000  2
| 43>       8       2.9080480000     -2.1779640000  2
| 44>     d 8
| 45>       1       8.3692200000     36.3683650000  2
| 46>       2       8.1169750000     54.5517610000  2
| 47>       3       5.3536560000      9.6344870000  2
| 48>       4       5.0972120000     14.3879020000  2
| 49>       5       6.3485710000    -21.7972900000  2
| 50>       6       6.2959490000    -28.9468050000  2
| 51>       7       2.8821180000     -1.4473650000  2
| 52>       8       2.9080480000     -2.1779640000  2
| 53>     f 4
| 54>       1       6.3485710000     21.7972900000  2
| 55>       2       6.2959490000     28.9468050000  2
| 56>       3       2.8821180000      1.4473650000  2
| 57>       4       2.9080480000      2.1779640000  2
| 58>   end
| 59>   NewGTO 86
| 60>     s 5
| 61>      1    5187.7442468000      0.0006597856
| 62>      2     768.1449120700      0.0043071109
| 63>      3     159.3518206500      0.0112206544
| 64>      4      21.8634327240     -2.2562235295
| 65>      5      18.3886899780      3.2102392906
| 66>     s 2
| 67>      1      24.8162264480     -0.0801828033
| 68>      2       7.2923301677      1.0601788376
| 69>     s 1
| 70>      1       2.0850437166      1.0000000000
| 71>     s 1
| 72>      1       1.0915245945      1.0000000000
| 73>     s 1
| 74>      1       0.3491570843      1.0000000000
| 75>     s 1
| 76>      1       0.1364842295      1.0000000000
| 77>     p 3
| 78>      1     194.6891872300      0.0009489126
| 79>      2      11.2100135250      0.7208226436
| 80>      3       7.5298316489     -1.6616559490
| 81>     p 4
| 82>      1       9.0845000304     -0.1595946907
| 83>      2       6.2631489717      0.2746830724
| 84>      3       2.2545193734      0.5737709752
| 85>      4       1.1180666918      0.3556720969
| 86>     p 1
| 87>      1       0.4744449259      1.0000000000
| 88>     p 1
| 89>      1       0.2017235462      1.0000000000
| 90>     p 1
| 91>      1       0.0795031444      1.0000000000
| 92>   end
| 93>   NewAuxGTO 86
| 94>     S 1
| 95>      1 1310.72 1.0
| 96>     S 1
| 97>      1  655.36 1.0
| 98>     S 1
| 99>      1  327.68 1.0
|100>     S 1
|101>      1  163.84 1.0
|102>     S 1
|103>      1   81.82 1.0
|104>     S 1
|105>      1   40.96 1.0
|106>     S 1
|107>      1   20.48 1.0
|108>     S 1
|109>      1   10.24 1.0
|110>     S 1
|111>      1    5.12 1.0
|112>     S 1
|113>      1    2.56 1.0
|114>     S 1
|115>      1    1.28 1.0
|116>     S 1
|117>      1    0.64 1.0
|118>     S 1
|119>      1    0.32 1.0
|120>     S 1
|121>      1    0.16 1.0
|122>     S 1
|123>      1    0.08 1.0
|124>     S 1
|125>      1    0.04 1.0
|126>     S 1
|127>      1    0.02 1.0
|128>     S 1
|129>      1    0.01 1.0
|130>   end
|131> end
|132>
|133> * xyz 0 1
|134> 86  0.0 0.0 0.0
|135> *
|136>
|137>
|138>                          ****END OF INPUT****

CARTESIAN COORDINATES (ANGSTROEM)
---------------------------------
  Rn     0.000000    0.000000    0.000000

 Total Charge           Charge          ....    0
 Multiplicity           Mult            ....    1
 Number of Electrons    NEL             ....   26
 Basis Dimension        Dim             ....   21

ORBITAL ENERGIES
----------------

  NO   OCC          E(Eh)            E(eV)
   0   2.0000     -12.652080      -344.2806
   1   2.0000      -9.473812      -257.7955
   2   2.0000      -9.472494      -257.7597
   3   2.0000      -9.457689      -257.3568
   4   2.0000      -3.574977       -97.2801
   5   2.0000      -2.335865       -63.5621
   6   2.0000      -2.304248       -62.7018
   7   2.0000      -2.209554       -60.1250
   8   2.0000      -0.368091       -10.0163
   9   2.0000      -0.320560        -8.7229
  10   2.0000      -0.749238       -20.3878
  11   2.0000      -0.495720       -13.4892
  12   2.0000       0.200976         5.4688
  13   0.0000       0.379641        10.3306
  14   0.0000       0.379646        10.3307
  15   0.0000       1.343741        36.5651
  16   0.0000      25.699988       699.3322
  17   0.0000      25.699989       699.3322

CleanUpVectors: The p-vectors have cracked symmetry
CleanUpVectors: The p-vectors have cracked symmetry
CleanUpVectors: The p-vectors have cracked symmetry
CleanUpVectors: The p-vectors have cracked symmetry
CleanUpVectors: The p-vectors have cracked symmetry
CleanUpVectors: The p-vectors have cracked symmetry
CleanUpVectors: The p-vectors have cracked symmetry
CleanUpVectors: The p-vectors have cracked symmetry
CleanUpVectors: The p-vectors have cracked symmetry
CleanUpVectors: The p-vectors have cracked symmetry
CleanUpVectors: The p-vectors have cracked symmetry
CleanUpVectors: The p-vectors have cracked symmetry
CleanUpVectors: The p-vectors have cracked symmetry
CleanUpVectors: The p-vectors have cracked symmetry
CleanUpVectors: The p-vectors have cracked symmetry
--------------------------
ATOM BASIS FOR ELEMENT Rn
--------------------------
 NewGTO Rn
 S 11
    1       5187.744246800000         0.000156437305
    2        768.144912070000         0.001021229959
    3        159.351820650000         0.002660453537
    4         21.863432724000        -0.534957913784
    5         18.388689978000         0.761158143772
    6         24.816226448000         0.079432382032
    7          7.292330167700        -1.050256750636
    8          2.085043716600         1.272354060208
    9          1.091524594500         0.228865255745
   10          0.349157084300         0.015040801349
   11          0.136484229500        -0.012752611543
 P 21
    1        194.689187230000        -0.000069590104
    2         11.210013525000        -0.052862742924
    3          7.529831648900         0.121860338378
    4        194.689187230000        -0.000027770347
    5         11.210013525000        -0.021095193380
    6          7.529831648900         0.048629096056
    7        194.689187230000        -0.000384180459
    8         11.210013525000        -0.291835069228
    9          7.529831648900         0.672744513807
   10          9.084500030400         0.037397343903
   11          6.263148971700        -0.064365658268
   12          2.254519373400        -0.134450027048
   13          1.118066691800        -0.083343572811
   14          9.084500030400         0.014923633507
   15          6.263148971700        -0.025685500470
   16          2.254519373400        -0.053653086534
   17          1.118066691800        -0.033258750647
   18          9.084500030400         0.206456491725
   19          6.263148971700        -0.355338283593
   20          2.254519373400        -0.742247389771
   21          1.118066691800        -0.460108121444
 S 11
    1       5187.744246800000         0.000107775673
    2        768.144912070000         0.000703564578
    3        159.351820650000         0.001832888717
    4         21.863432724000        -0.368553072178
    5         18.388689978000         0.524391106425
    6         24.816226448000         0.068217822736
    7          7.292330167700        -0.901977594144
    8          2.085043716600         2.248187715168
    9          1.091524594500        -1.009779910550
   10          0.349157084300        -1.054783472401
   11          0.136484229500         0.085524093601
 P 21
    1        194.689187230000        -0.000041614075
    2         11.210013525000        -0.031611306901
    3          7.529831648900         0.072871068402
    4        194.689187230000        -0.000016606345
    5         11.210013525000        -0.012614680874
    6          7.529831648900         0.029079635198
    7        194.689187230000        -0.000229735457
    8         11.210013525000        -0.174513985232
    9          7.529831648900         0.402293413393
   10          9.084500030400         0.029672881152
   11          6.263148971700        -0.051070860353
   12          2.254519373400        -0.106679225235
   13          1.118066691800        -0.066128865654
   14          9.084500030400         0.011841140498
   15          6.263148971700        -0.020380131935
   16          2.254519373400        -0.042570982161
   17          1.118066691800        -0.026389118911
   18          9.084500030400         0.163812674983
   19          6.263148971700        -0.281942768052
   20          2.254519373400        -0.588935370360
   21          1.118066691800        -0.365072280001
 S 11
    1       5187.744246800000         0.001738271273
    2        768.144912070000         0.011347515231
    3        159.351820650000         0.029561938306
    4         21.863432724000        -5.944246958043
    5         18.388689978000         8.457697071339
    6         24.816226448000         0.400364775908
    7          7.292330167700        -5.293632116484
    8          2.085043716600         4.718556475803
    9          1.091524594500        -3.514148278205
   10          0.349157084300         1.156540442031
   11          0.136484229500        -0.375644943468
 S 11
    1       5187.744246800000         0.001663720988
    2        768.144912070000         0.010860847528
    3        159.351820650000         0.028294097700
    4         21.863432724000        -5.689312467898
    5         18.388689978000         8.094966736294
    6         24.816226448000         0.187560672940
    7          7.292330167700        -2.479931457033
    8          2.085043716600         1.476283343289
    9          1.091524594500        -1.015515269253
   10          0.349157084300         0.317655159749
   11          0.136484229500        -0.102263306809
 P 21
    1        194.689187230000         0.000102146280
    2         11.210013525000         0.077593396680
    3          7.529831648900        -0.178869976328
    4        194.689187230000        -0.000208662277
    5         11.210013525000        -0.158506161569
    6          7.529831648900         0.365391832045
    7        194.689187230000        -0.000003419608
    8         11.210013525000        -0.002597637265
    9          7.529831648900         0.005988129608
   10          9.084500030400        -0.072947990349
   11          6.263148971700         0.125552911733
   12          2.254519373400         0.262260852024
   13          1.118066691800         0.162571602967
   14          9.084500030400         0.149016623052
   15          6.263148971700        -0.256476851949
   16          2.254519373400        -0.535740962023
   17          1.118066691800        -0.332097857148
   18          9.084500030400         0.002442120415
   19          6.263148971700        -0.004203204605
   20          2.254519373400        -0.008779852300
   21          1.118066691800        -0.005442499905
 P 21
    1        194.689187230000         0.000055844953
    2         11.210013525000         0.042421511430
    3          7.529831648900        -0.097790985701
    4        194.689187230000        -0.000114078898
    5         11.210013525000        -0.086657772857
    6          7.529831648900         0.199765372347
    7        194.689187230000        -0.000001869553
    8         11.210013525000        -0.001420168515
    9          7.529831648900         0.003273803178
   10          9.084500030400        -0.043573640365
   11          6.263148971700         0.074995862071
   12          2.254519373400         0.156654898828
   13          1.118066691800         0.097108042693
   14          9.084500030400         0.089011317654
   15          6.263148971700        -0.153199972408
   16          2.254519373400        -0.320011338161
   17          1.118066691800        -0.198370270709
   18          9.084500030400         0.001458738975
   19          6.263148971700        -0.002510678155
   20          2.254519373400        -0.005244423112
   21          1.118066691800        -0.003250939915
 P 21
    1        194.689187230000        -0.000021602804
    2         11.210013525000        -0.016410141418
    3          7.529831648900         0.037829012939
    4        194.689187230000        -0.000008620728
    5         11.210013525000        -0.006548564896
    6          7.529831648900         0.015095893441
    7        194.689187230000        -0.000119260856
    8         11.210013525000        -0.090594145037
    9          7.529831648900         0.208839582638
   10          9.084500030400         0.017044497220
   11          6.263148971700        -0.029335780804
   12          2.254519373400        -0.061277964504
   13          1.118066691800        -0.037985299137
   14          9.084500030400         0.006801708366
   15          6.263148971700        -0.011706618456
   16          2.254519373400        -0.024453337546
   17          1.118066691800        -0.015158260381
   18          9.084500030400         0.094096181983
   19          6.263148971700        -0.161951680566
   20          2.254519373400        -0.338292319514
   21          1.118066691800        -0.209702379255
 P 21
    1        194.689187230000        -0.000258895176
    2         11.210013525000        -0.196664587340
    3          7.529831648900         0.453355460476
    4        194.689187230000        -0.000103313677
    5         11.210013525000        -0.078480186098
    6          7.529831648900         0.180914222474
    7        194.689187230000        -0.001429261047
    8         11.210013525000        -1.085709818040
    9          7.529831648900         2.502801755815
   10          9.084500030400         0.033403586986
   11          6.263148971700        -0.057491886868
   12          2.254519373400        -0.120091768692
   13          1.118066691800        -0.074443101930
   14          9.084500030400         0.013329902238
   15          6.263148971700        -0.022942483146
   16          2.254519373400        -0.047923342394
   17          1.118066691800        -0.029706967442
   18          9.084500030400         0.184408402340
   19          6.263148971700        -0.317390674521
   20          2.254519373400        -0.662980631634
   21          1.118066691800        -0.410971836586
 end
  // -----------------------------------------------
  // The basis set
  // -----------------------------------------------
  BAS[ATNO] = new BFNGauss[NSH];
  // Basis function   1 L = s
  InitBFNGauss(BAS[ATNO][  0]);
  BAS[ATNO][  0].l  = 0;
  BAS[ATNO][  0].ng = 11;
  BAS[ATNO][  0].a[  0] =      5187.744246800000;     BAS[ATNO][  0].d[  0] =         0.000156437305;
  BAS[ATNO][  0].a[  1] =       768.144912070000;     BAS[ATNO][  0].d[  1] =         0.001021229959;
  BAS[ATNO][  0].a[  2] =       159.351820650000;     BAS[ATNO][  0].d[  2] =         0.002660453537;
  BAS[ATNO][  0].a[  3] =        21.863432724000;     BAS[ATNO][  0].d[  3] =        -0.534957913784;
  BAS[ATNO][  0].a[  4] =        18.388689978000;     BAS[ATNO][  0].d[  4] =         0.761158143772;
  BAS[ATNO][  0].a[  5] =        24.816226448000;     BAS[ATNO][  0].d[  5] =         0.079432382032;
  BAS[ATNO][  0].a[  6] =         7.292330167700;     BAS[ATNO][  0].d[  6] =        -1.050256750636;
  BAS[ATNO][  0].a[  7] =         2.085043716600;     BAS[ATNO][  0].d[  7] =         1.272354060208;
  BAS[ATNO][  0].a[  8] =         1.091524594500;     BAS[ATNO][  0].d[  8] =         0.228865255745;
  BAS[ATNO][  0].a[  9] =         0.349157084300;     BAS[ATNO][  0].d[  9] =         0.015040801349;
  BAS[ATNO][  0].a[ 10] =         0.136484229500;     BAS[ATNO][  0].d[ 10] =        -0.012752611543;

FINAL SINGLE POINT ENERGY      -252.295955212022

DIPOLE MOMENT
-------------
                                X             Y             Z
Electronic contribution:     -0.00000       0.00000       0.00000
Nuclear contribution   :      0.00000       0.00000       0.00000
                        -----------------------------------------
Total Dipole Moment    :     -0.00000       0.00000       0.00000
                        -----------------------------------------
Magnitude (a.u.)       :      0.00000
Magnitude (Debye)      :      0.00000

Rotational constants in cm-1:     0.000000     0.000000     0.000000
Rotational constants in MHz :     0.000000     0.000000     0.000000

                             ****ORCA TERMINATED NORMALLY****
TOTAL RUN TIME: 0 days 0 hours 0 minutes 0 seconds 927 msec
