                         Program Version 4.2.0 -  RELEASE  -
|  1> #
|  2> # 07_N CCSD(T)/aug-cc-pVTZ
|  3> #
|  4> ! CCSD(T) aug-cc-pVTZ tightscf
|  5>
|  6> *xyz 0 4
|  7>  N 0.0 0.0 0.0
|  8> *
|  9>
| 10> %maxcore 5000
| 11>
| 12> %pal
| 13> nprocs 10
| 14> end
| 15>
| 16>
| 17>                          ****END OF INPUT****

CARTESIAN COORDINATES (ANGSTROEM)
---------------------------------
  N      0.000000    0.000000    0.000000

 Total Charge           Charge          ....    0
 Multiplicity           Mult            ....    4
 Number of Electrons    NEL             ....    7
 Basis Dimension        Dim             ....   46

ORBITAL ENERGIES
----------------
                 SPIN UP ORBITALS
  NO   OCC          E(Eh)            E(eV)
   0   1.0000     -15.672389      -426.4674
   1   1.0000      -1.163601       -31.6632
   2   1.0000      -0.570741       -15.5307
   3   1.0000      -0.570741       -15.5307
   4   1.0000      -0.570741       -15.5307
   5   0.0000       0.120646         3.2830
   6   0.0000       0.129723         3.5299
   7   0.0000       0.129723         3.5299
   8   0.0000       0.129723         3.5299
   9   0.0000       0.449982        12.2446

                 SPIN DOWN ORBITALS
  NO   OCC          E(Eh)            E(eV)
   0   1.0000     -15.582710      -424.0271
   1   1.0000      -0.726945       -19.7812
   2   0.0000       0.077007         2.0955
   3   0.0000       0.077007         2.0955
   4   0.0000       0.077007         2.0955
   5   0.0000       0.140629         3.8267
   6   0.0000       0.225780         6.1438

E(0)                                       ...    -54.401162240
E(0)                                       ...    -54.401162240
E(CORR)                                    ...     -0.113205599
E(TOT)                                     ...    -54.514367839
E(CCSD(T))                                 ...    -54.516923946

MULLIKEN ATOMIC CHARGES AND SPIN DENSITIES
------------------------------------------
   0 N :   -0.000000    3.000000
Sum of atomic charges       :   -0.0000000

LOEWDIN ATOMIC CHARGES AND SPIN DENSITIES
-----------------------------------------
   0 N :   -0.000000    3.000000

FINAL SINGLE POINT ENERGY       -54.516923945864

DIPOLE MOMENT
-------------
                                X             Y             Z
Electronic contribution:      0.00000       0.00000       0.00000
Nuclear contribution   :      0.00000       0.00000       0.00000
                        -----------------------------------------
Total Dipole Moment    :      0.00000       0.00000       0.00000
                        -----------------------------------------
Magnitude (a.u.)       :      0.00000
Magnitude (Debye)      :      0.00000

Rotational constants in cm-1:     0.000000     0.000000     0.000000
Rotational constants in MHz :     0.000000     0.000000     0.000000

                             ****ORCA TERMINATED NORMALLY****
TOTAL RUN TIME: 0 days 0 hours 0 minutes 7 seconds 50 msec
