                         Program Version 4.2.0 -  RELEASE  -
|  1> #
|  2> # 08_O CCSD(T)/aug-cc-pVTZ
|  3> #
|  4> ! CCSD(T) aug-cc-pVTZ tightscf
|  5>
|  6> *xyz 0 3
|  7>  O 0.0 0.0 0.0
|  8> *
|  9>
| 10> %maxcore 5000
| 11>
| 12> %pal
| 13> nprocs 15
| 14> end
| 15>
| 16>
| 17>                          ****END OF INPUT****

CARTESIAN COORDINATES (ANGSTROEM)
---------------------------------
  O      0.000000    0.000000    0.000000

 Total Charge           Charge          ....    0
 Multiplicity           Mult            ....    3
 Number of Electrons    NEL             ....    8
 Basis Dimension        Dim             ....   46

ORBITAL ENERGIES
----------------
                 SPIN UP ORBITALS
  NO   OCC          E(Eh)            E(eV)
   0   1.0000     -20.710799      -563.5695
   1   1.0000      -1.419560       -38.6282
   2   1.0000      -0.710995       -19.3472
   3   1.0000      -0.710995       -19.3472
   4   1.0000      -0.611817       -16.6484
   5   0.0000       0.153155         4.1676
   6   0.0000       0.153155         4.1676
   7   0.0000       0.155500         4.2314
   8   0.0000       0.162737         4.4283
   9   0.0000       0.622787        16.9469

                 SPIN DOWN ORBITALS
  NO   OCC          E(Eh)            E(eV)
   0   1.0000     -20.632305      -561.4336
   1   1.0000      -1.077293       -29.3146
   2   1.0000      -0.521805       -14.1990
   3   0.0000       0.064869         1.7652
   4   0.0000       0.064869         1.7652
   5   0.0000       0.166981         4.5438
   6   0.0000       0.169317         4.6073
   7   0.0000       0.227045         6.1782

E(0)                                       ...    -74.812982206
E(0)                                       ...    -74.812982206
E(CORR)                                    ...     -0.162540109
E(TOT)                                     ...    -74.975522316
E(CCSD(T))                                 ...    -74.978952294

MULLIKEN ATOMIC CHARGES AND SPIN DENSITIES
------------------------------------------
   0 O :   -0.000000    2.000000
Sum of atomic charges       :   -0.0000000

LOEWDIN ATOMIC CHARGES AND SPIN DENSITIES
-----------------------------------------
   0 O :   -0.000000    2.000000

FINAL SINGLE POINT ENERGY       -74.978952293625

DIPOLE MOMENT
-------------
                                X             Y             Z
Electronic contribution:     -0.00000      -0.00000       0.00000
Nuclear contribution   :      0.00000       0.00000       0.00000
                        -----------------------------------------
Total Dipole Moment    :     -0.00000      -0.00000       0.00000
                        -----------------------------------------
Magnitude (a.u.)       :      0.00000
Magnitude (Debye)      :      0.00000

Rotational constants in cm-1:     0.000000     0.000000     0.000000
Rotational constants in MHz :     0.000000     0.000000     0.000000

                             ****ORCA TERMINATED NORMALLY****
TOTAL RUN TIME: 0 days 0 hours 0 minutes 8 seconds 82 msec
