                         Program Version 4.2.0 -  RELEASE  -
|  1> #
|  2> # 11_Na CCSD(T)/aug-cc-pVTZ
|  3> #
|  4> ! HF aug-cc-pVTZ tightscf
|  5>
|  6> *xyz 0 2
|  7>  Na 0.0 0.0 0.0
|  8> *
|  9>
| 10> %maxcore 5000
| 11>
| 12> %pal
| 13> nprocs 24
| 14> end
| 15>
| 16> %method
| 17> NewNCore Na 10 end
| 18> end
| 19>
| 20>
| 21>                          ****END OF INPUT****

CARTESIAN COORDINATES (ANGSTROEM)
---------------------------------
  Na     0.000000    0.000000    0.000000

 Total Charge           Charge          ....    0
 Multiplicity           Mult            ....    2
 Number of Electrons    NEL             ....   11
 Basis Dimension        Dim             ....   50

ORBITAL ENERGIES
----------------
                 SPIN UP ORBITALS
  NO   OCC          E(Eh)            E(eV)
   0   1.0000     -40.479966     -1101.5159
   1   1.0000      -2.800599       -76.2082
   2   1.0000      -1.519078       -41.3362
   3   1.0000      -1.519078       -41.3362
   4   1.0000      -1.519078       -41.3362
   5   1.0000      -0.182200        -4.9579
   6   0.0000       0.012609         0.3431
   7   0.0000       0.012609         0.3431
   8   0.0000       0.012609         0.3431
   9   0.0000       0.017404         0.4736
  10   0.0000       0.039712         1.0806

                 SPIN DOWN ORBITALS
  NO   OCC          E(Eh)            E(eV)
   0   1.0000     -40.477341     -1101.4445
   1   1.0000      -2.793484       -76.0146
   2   1.0000      -1.516914       -41.2773
   3   1.0000      -1.516914       -41.2773
   4   1.0000      -1.516914       -41.2773
   5   0.0000       0.004836         0.1316
   6   0.0000       0.017500         0.4762
   7   0.0000       0.017500         0.4762
   8   0.0000       0.017500         0.4762
   9   0.0000       0.037028         1.0076

MULLIKEN ATOMIC CHARGES AND SPIN POPULATIONS
--------------------------------------------
   0 Na:   -0.000000    1.000000
Sum of atomic charges         :   -0.0000000

LOEWDIN ATOMIC CHARGES AND SPIN POPULATIONS
-------------------------------------------
   0 Na:    0.000000    1.000000

FINAL SINGLE POINT ENERGY      -161.858036287136

DIPOLE MOMENT
-------------
                                X             Y             Z
Electronic contribution:     -0.00000      -0.00000      -0.00000
Nuclear contribution   :      0.00000       0.00000       0.00000
                        -----------------------------------------
Total Dipole Moment    :     -0.00000      -0.00000      -0.00000
                        -----------------------------------------
Magnitude (a.u.)       :      0.00000
Magnitude (Debye)      :      0.00000

Rotational constants in cm-1:     0.000000     0.000000     0.000000
Rotational constants in MHz :     0.000000     0.000000     0.000000

                             ****ORCA TERMINATED NORMALLY****
TOTAL RUN TIME: 0 days 0 hours 0 minutes 4 seconds 870 msec
