                         Program Version 4.2.0 -  RELEASE  -
|  1> #
|  2> # 13_Al CCSD(T)/aug-cc-pVTZ
|  3> #
|  4> ! CCSD(T) aug-cc-pVTZ tightscf
|  5>
|  6> *xyz 0 2
|  7>  Al 0.0 0.0 0.0
|  8> *
|  9>
| 10> %maxcore 5000
| 11>
| 12> %pal
| 13> nprocs 3
| 14> end
| 15>
| 16>
| 17>                          ****END OF INPUT****

CARTESIAN COORDINATES (ANGSTROEM)
---------------------------------
  Al     0.000000    0.000000    0.000000

 Total Charge           Charge          ....    0
 Multiplicity           Mult            ....    2
 Number of Electrons    NEL             ....   13
 Basis Dimension        Dim             ....   50

ORBITAL ENERGIES
----------------
                 SPIN UP ORBITALS
  NO   OCC          E(Eh)            E(eV)
   0   1.0000     -58.502070     -1591.9223
   1   1.0000      -4.911800      -133.6569
   2   1.0000      -3.226071       -87.7859
   3   1.0000      -3.218848       -87.5893
   4   1.0000      -3.218848       -87.5893
   5   1.0000      -0.425950       -11.5907
   6   1.0000      -0.217909        -5.9296
   7   0.0000       0.009928         0.2702
   8   0.0000       0.009928         0.2702
   9   0.0000       0.046974         1.2782
  10   0.0000       0.047207         1.2846
  11   0.0000       0.063297         1.7224

                 SPIN DOWN ORBITALS
  NO   OCC          E(Eh)            E(eV)
   0   1.0000     -58.499186     -1591.8438
   1   1.0000      -4.908407      -133.5645
   2   1.0000      -3.217395       -87.5498
   3   1.0000      -3.217395       -87.5498
   4   1.0000      -3.208096       -87.2967
   5   1.0000      -0.364238        -9.9114
   6   0.0000       0.014296         0.3890
   7   0.0000       0.014296         0.3890
   8   0.0000       0.030945         0.8421
   9   0.0000       0.051459         1.4003
  10   0.0000       0.066775         1.8170

E(0)                                       ...   -241.879173948
E(0)                                       ...   -241.879173948
E(CORR)                                    ...     -0.051147426
E(TOT)                                     ...   -241.930321373
E(CCSD(T))                                 ...   -241.931500937

MULLIKEN ATOMIC CHARGES AND SPIN DENSITIES
------------------------------------------
   0 Al:    0.000000    1.000000
Sum of atomic charges       :    0.0000000

LOEWDIN ATOMIC CHARGES AND SPIN DENSITIES
-----------------------------------------
   0 Al:   -0.000000    1.000000

FINAL SINGLE POINT ENERGY      -241.931500936810

DIPOLE MOMENT
-------------
                                X             Y             Z
Electronic contribution:     -0.00000       0.00000       0.00000
Nuclear contribution   :      0.00000       0.00000       0.00000
                        -----------------------------------------
Total Dipole Moment    :     -0.00000       0.00000       0.00000
                        -----------------------------------------
Magnitude (a.u.)       :      0.00000
Magnitude (Debye)      :      0.00000

Rotational constants in cm-1:     0.000000     0.000000     0.000000
Rotational constants in MHz :     0.000000     0.000000     0.000000

                             ****ORCA TERMINATED NORMALLY****
TOTAL RUN TIME: 0 days 0 hours 0 minutes 11 seconds 189 msec
