                         Program Version 4.2.0 -  RELEASE  -
|  1> #
|  2> # 14_Si CCSD(T)/aug-cc-pVTZ
|  3> #
|  4> ! CCSD(T) aug-cc-pVTZ tightscf
|  5>
|  6> *xyz 0 3
|  7>  Si 0.0 0.0 0.0
|  8> *
|  9>
| 10> %maxcore 5000
| 11>
| 12> %pal
| 13> nprocs 6
| 14> end
| 15>
| 16>
| 17>                          ****END OF INPUT****

CARTESIAN COORDINATES (ANGSTROEM)
---------------------------------
  Si     0.000000    0.000000    0.000000

 Total Charge           Charge          ....    0
 Multiplicity           Mult            ....    3
 Number of Electrons    NEL             ....   14
 Basis Dimension        Dim             ....   50

ORBITAL ENERGIES
----------------
                 SPIN UP ORBITALS
  NO   OCC          E(Eh)            E(eV)
   0   1.0000     -68.817534     -1872.6203
   1   1.0000      -6.161913      -167.6742
   2   1.0000      -4.269757      -116.1860
   3   1.0000      -4.269757      -116.1860
   4   1.0000      -4.259208      -115.8989
   5   1.0000      -0.620331       -16.8801
   6   1.0000      -0.301276        -8.1981
   7   1.0000      -0.301276        -8.1981
   8   0.0000      -0.010433        -0.2839
   9   0.0000       0.066378         1.8062
  10   0.0000       0.070565         1.9202
  11   0.0000       0.070565         1.9202
  12   0.0000       0.082617         2.2481

                 SPIN DOWN ORBITALS
  NO   OCC          E(Eh)            E(eV)
   0   1.0000     -68.807958     -1872.3597
   1   1.0000      -6.150968      -167.3764
   2   1.0000      -4.254468      -115.7700
   3   1.0000      -4.241200      -115.4089
   4   1.0000      -4.241200      -115.4089
   5   1.0000      -0.463756       -12.6194
   6   0.0000       0.005442         0.1481
   7   0.0000       0.034879         0.9491
   8   0.0000       0.034879         0.9491
   9   0.0000       0.076588         2.0841
  10   0.0000       0.088944         2.4203

E(0)                                       ...   -288.856627781
E(0)                                       ...   -288.856627781
E(CORR)                                    ...     -0.074659272
E(TOT)                                     ...   -288.931287054
E(CCSD(T))                                 ...   -288.933839704

MULLIKEN ATOMIC CHARGES AND SPIN DENSITIES
------------------------------------------
   0 Si:   -0.000000    2.000000
Sum of atomic charges       :   -0.0000000

LOEWDIN ATOMIC CHARGES AND SPIN DENSITIES
-----------------------------------------
   0 Si:   -0.000000    2.000000

FINAL SINGLE POINT ENERGY      -288.933839704323

DIPOLE MOMENT
-------------
                                X             Y             Z
Electronic contribution:      0.00000       0.00000      -0.00000
Nuclear contribution   :      0.00000       0.00000       0.00000
                        -----------------------------------------
Total Dipole Moment    :      0.00000       0.00000      -0.00000
                        -----------------------------------------
Magnitude (a.u.)       :      0.00000
Magnitude (Debye)      :      0.00000

Rotational constants in cm-1:     0.000000     0.000000     0.000000
Rotational constants in MHz :     0.000000     0.000000     0.000000

                             ****ORCA TERMINATED NORMALLY****
TOTAL RUN TIME: 0 days 0 hours 0 minutes 9 seconds 98 msec
