                         Program Version 4.2.0 -  RELEASE  -
|  1> #
|  2> # 16_S CCSD(T)/aug-cc-pVTZ
|  3> #
|  4> ! CCSD(T) aug-cc-pVTZ tightscf
|  5>
|  6> *xyz 0 3
|  7>  S 0.0 0.0 0.0
|  8> *
|  9>
| 10> %maxcore 5000
| 11>
| 12> %pal
| 13> nprocs 15
| 14> end
| 15>
| 16>
| 17>                          ****END OF INPUT****

CARTESIAN COORDINATES (ANGSTROEM)
---------------------------------
  S      0.000000    0.000000    0.000000

 Total Charge           Charge          ....    0
 Multiplicity           Mult            ....    3
 Number of Electrons    NEL             ....   16
 Basis Dimension        Dim             ....   50

ORBITAL ENERGIES
----------------
                 SPIN UP ORBITALS
  NO   OCC          E(Eh)            E(eV)
   0   1.0000     -92.013851     -2503.8242
   1   1.0000      -9.013668      -245.2744
   2   1.0000      -6.706039      -182.4806
   3   1.0000      -6.706039      -182.4806
   4   1.0000      -6.685444      -181.9202
   5   1.0000      -0.990137       -26.9430
   6   1.0000      -0.487056       -13.2535
   7   1.0000      -0.487056       -13.2535
   8   1.0000      -0.415911       -11.3175
   9   0.0000       0.091733         2.4962
  10   0.0000       0.091733         2.4962
  11   0.0000       0.099784         2.7153
  12   0.0000       0.100335         2.7303
  13   0.0000       0.241098         6.5606

                 SPIN DOWN ORBITALS
  NO   OCC          E(Eh)            E(eV)
   0   1.0000     -91.996158     -2503.3427
   1   1.0000      -8.994931      -244.7645
   2   1.0000      -6.675855      -181.6592
   3   1.0000      -6.660358      -181.2376
   4   1.0000      -6.660358      -181.2376
   5   1.0000      -0.774359       -21.0714
   6   1.0000      -0.379417       -10.3245
   7   0.0000       0.001023         0.0278
   8   0.0000       0.001023         0.0278
   9   0.0000       0.101475         2.7613
  10   0.0000       0.111464         3.0331
  11   0.0000       0.118980         3.2376

E(0)                                       ...   -397.509872732
E(0)                                       ...   -397.509872732
E(CORR)                                    ...     -0.141286772
E(TOT)                                     ...   -397.651159504
E(CCSD(T))                                 ...   -397.656142151

MULLIKEN ATOMIC CHARGES AND SPIN DENSITIES
------------------------------------------
   0 S :    0.000000    2.000000
Sum of atomic charges       :    0.0000000

LOEWDIN ATOMIC CHARGES AND SPIN DENSITIES
-----------------------------------------
   0 S :    0.000000    2.000000

FINAL SINGLE POINT ENERGY      -397.656142151372

DIPOLE MOMENT
-------------
                                X             Y             Z
Electronic contribution:      0.00000      -0.00000       0.00000
Nuclear contribution   :      0.00000       0.00000       0.00000
                        -----------------------------------------
Total Dipole Moment    :      0.00000      -0.00000       0.00000
                        -----------------------------------------
Magnitude (a.u.)       :      0.00000
Magnitude (Debye)      :      0.00000

Rotational constants in cm-1:     0.000000     0.000000     0.000000
Rotational constants in MHz :     0.000000     0.000000     0.000000

                             ****ORCA TERMINATED NORMALLY****
TOTAL RUN TIME: 0 days 0 hours 0 minutes 9 seconds 985 msec
