                         Program Version 4.2.0 -  RELEASE  -
|  1> #
|  2> # 17_Cl CCSD(T)/aug-cc-pVTZ
|  3> #
|  4> ! CCSD(T) aug-cc-pVTZ tightscf
|  5>
|  6> *xyz 0 2
|  7>  Cl 0.0 0.0 0.0
|  8> *
|  9>
| 10> %maxcore 5000
| 11>
| 12> %pal
| 13> nprocs 21
| 14> end
| 15>
| 16>
| 17>                          ****END OF INPUT****

CARTESIAN COORDINATES (ANGSTROEM)
---------------------------------
  Cl     0.000000    0.000000    0.000000

 Total Charge           Charge          ....    0
 Multiplicity           Mult            ....    2
 Number of Electrons    NEL             ....   17
 Basis Dimension        Dim             ....   50

ORBITAL ENERGIES
----------------
                 SPIN UP ORBITALS
  NO   OCC          E(Eh)            E(eV)
   0   1.0000    -104.890760     -2854.2227
   1   1.0000     -10.613245      -288.8011
   2   1.0000      -8.098600      -220.3741
   3   1.0000      -8.074080      -219.7069
   4   1.0000      -8.074080      -219.7069
   5   1.0000      -1.136475       -30.9251
   6   1.0000      -0.581842       -15.8327
   7   1.0000      -0.502864       -13.6836
   8   1.0000      -0.502864       -13.6836
   9   0.0000       0.106259         2.8915
  10   0.0000       0.114351         3.1117
  11   0.0000       0.114351         3.1117
  12   0.0000       0.122296         3.3279
  13   0.0000       0.317095         8.6286

                 SPIN DOWN ORBITALS
  NO   OCC          E(Eh)            E(eV)
   0   1.0000    -104.879644     -2853.9202
   1   1.0000     -10.601967      -288.4942
   2   1.0000      -8.068269      -219.5488
   3   1.0000      -8.068269      -219.5488
   4   1.0000      -8.049573      -219.0400
   5   1.0000      -1.014859       -27.6157
   6   1.0000      -0.480989       -13.0884
   7   1.0000      -0.480989       -13.0884
   8   0.0000      -0.041551        -1.1307
   9   0.0000       0.115191         3.1345
  10   0.0000       0.115191         3.1345
  11   0.0000       0.127171         3.4605
  12   0.0000       0.128045         3.4843

E(0)                                       ...   -459.485968970
E(0)                                       ...   -459.485968970
E(CORR)                                    ...     -0.184082416
E(TOT)                                     ...   -459.670051385
E(CCSD(T))                                 ...   -459.676215719

MULLIKEN ATOMIC CHARGES AND SPIN DENSITIES
------------------------------------------
   0 Cl:   -0.000000    1.000000
Sum of atomic charges       :   -0.0000000

LOEWDIN ATOMIC CHARGES AND SPIN DENSITIES
-----------------------------------------
   0 Cl:   -0.000000    1.000000

FINAL SINGLE POINT ENERGY      -459.676215718554

DIPOLE MOMENT
-------------
                                X             Y             Z
Electronic contribution:     -0.00000      -0.00000      -0.00000
Nuclear contribution   :      0.00000       0.00000       0.00000
                        -----------------------------------------
Total Dipole Moment    :     -0.00000      -0.00000      -0.00000
                        -----------------------------------------
Magnitude (a.u.)       :      0.00000
Magnitude (Debye)      :      0.00000

Rotational constants in cm-1:     0.000000     0.000000     0.000000
Rotational constants in MHz :     0.000000     0.000000     0.000000

                             ****ORCA TERMINATED NORMALLY****
TOTAL RUN TIME: 0 days 0 hours 0 minutes 10 seconds 107 msec
