                         Program Version 4.2.0 -  RELEASE  -
|  1> #
|  2> # 18_Ar CCSD(T)/aug-cc-pVTZ
|  3> #
|  4> ! CCSD(T) aug-cc-pVTZ tightscf
|  5>
|  6> *xyz 0 1
|  7>  Ar 0.0 0.0 0.0
|  8> *
|  9>
| 10> %maxcore 5000
| 11>
| 12> %pal
| 13> nprocs 10
| 14> end
| 15>
| 16>
| 17>                          ****END OF INPUT****

CARTESIAN COORDINATES (ANGSTROEM)
---------------------------------
  Ar     0.000000    0.000000    0.000000

 Total Charge           Charge          ....    0
 Multiplicity           Mult            ....    1
 Number of Electrons    NEL             ....   18
 Basis Dimension        Dim             ....   50

ORBITAL ENERGIES
----------------

  NO   OCC          E(Eh)            E(eV)
   0   2.0000    -118.612061     -3227.5983
   1   2.0000     -12.323158      -335.3302
   2   2.0000      -9.572129      -260.4709
   3   2.0000      -9.572129      -260.4709
   4   2.0000      -9.572129      -260.4709
   5   2.0000      -1.277884       -34.7730
   6   2.0000      -0.591365       -16.0919
   7   2.0000      -0.591365       -16.0919
   8   2.0000      -0.591365       -16.0919
   9   0.0000       0.129760         3.5309
  10   0.0000       0.129760         3.5309
  11   0.0000       0.129760         3.5309
  12   0.0000       0.145355         3.9553
  13   0.0000       0.408922        11.1273

E(0)                                       ...   -526.813352167
E(0)                                       ...   -526.813352167
E(CORR)                                    ...     -0.228058467
E(TOT)                                     ...   -527.041410634
E(CCSD(T))                                 ...   -527.048758393

MULLIKEN ATOMIC CHARGES
-----------------------
   0 Ar:   -0.000000
Sum of atomic charges:   -0.0000000

LOEWDIN ATOMIC CHARGES
----------------------
   0 Ar:   -0.000000

FINAL SINGLE POINT ENERGY      -527.048758392881

DIPOLE MOMENT
-------------
                                X             Y             Z
Electronic contribution:      0.00000      -0.00000      -0.00000
Nuclear contribution   :      0.00000       0.00000       0.00000
                        -----------------------------------------
Total Dipole Moment    :      0.00000      -0.00000      -0.00000
                        -----------------------------------------
Magnitude (a.u.)       :      0.00000
Magnitude (Debye)      :      0.00000

Rotational constants in cm-1:     0.000000     0.000000     0.000000
Rotational constants in MHz :     0.000000     0.000000     0.000000

                             ****ORCA TERMINATED NORMALLY****
TOTAL RUN TIME: 0 days 0 hours 0 minutes 5 seconds 711 msec
