                         Program Version 4.2.0 -  RELEASE  -
|  1> #
|  2> # 22_Ti CCSD(T)/aug-cc-pVTZ
|  3> #
|  4> ! CCSD(T) aug-cc-pVTZ tightscf
|  5>
|  6> *xyz 0 3
|  7>  Ti 0.0 0.0 0.0
|  8> *
|  9>
| 10> %maxcore 5000
| 11>
| 12> %pal
| 13> nprocs 24
| 14> end
| 15>
| 16>
| 17>                          ****END OF INPUT****

CARTESIAN COORDINATES (ANGSTROEM)
---------------------------------
  Ti     0.000000    0.000000    0.000000

 Total Charge           Charge          ....    0
 Multiplicity           Mult            ....    3
 Number of Electrons    NEL             ....   22
 Basis Dimension        Dim             ....   93

ORBITAL ENERGIES
----------------
                 SPIN UP ORBITALS
  NO   OCC          E(Eh)            E(eV)
   0   1.0000    -183.270812     -4987.0523
   1   1.0000     -21.438586      -583.3736
   2   1.0000     -17.806773      -484.5469
   3   1.0000     -17.806773      -484.5469
   4   1.0000     -17.806773      -484.5469
   5   1.0000      -2.936694       -79.9115
   6   1.0000      -1.874545       -51.0090
   7   1.0000      -1.874544       -51.0089
   8   1.0000      -1.874543       -51.0089
   9   1.0000      -0.448245       -12.1974
  10   1.0000      -0.448245       -12.1974
  11   1.0000      -0.232136        -6.3167
  12   0.0000       0.014827         0.4035
  13   0.0000       0.014827         0.4035
  14   0.0000       0.014828         0.4035
  15   0.0000       0.024644         0.6706
  16   0.0000       0.053600         1.4585

                 SPIN DOWN ORBITALS
  NO   OCC          E(Eh)            E(eV)
   0   1.0000    -183.270588     -4987.0462
   1   1.0000     -21.405007      -582.4599
   2   1.0000     -17.773334      -483.6370
   3   1.0000     -17.773333      -483.6370
   4   1.0000     -17.773333      -483.6370
   5   1.0000      -2.808782       -76.4309
   6   1.0000      -1.716337       -46.7039
   7   1.0000      -1.716336       -46.7039
   8   1.0000      -1.716335       -46.7038
   9   1.0000      -0.210053        -5.7158
  10   0.0000       0.015417         0.4195
  11   0.0000       0.015418         0.4195
  12   0.0000       0.015418         0.4195
  13   0.0000       0.025868         0.7039
  14   0.0000       0.053616         1.4590

E(0)                                       ...   -848.412966899
E(0)                                       ...   -848.412966899
E(CORR)                                    ...     -0.324774817
E(TOT)                                     ...   -848.737741717
E(CCSD(T))                                 ...   -848.748218517

MULLIKEN ATOMIC CHARGES AND SPIN DENSITIES
------------------------------------------
   0 Ti:   -0.000000    2.000000
Sum of atomic charges       :   -0.0000000

LOEWDIN ATOMIC CHARGES AND SPIN DENSITIES
-----------------------------------------
   0 Ti:   -0.000000    2.000000

FINAL SINGLE POINT ENERGY      -848.748218517024

DIPOLE MOMENT
-------------
                                X             Y             Z
Electronic contribution:     -0.00000       0.00000       0.00000
Nuclear contribution   :      0.00000       0.00000       0.00000
                        -----------------------------------------
Total Dipole Moment    :     -0.00000       0.00000       0.00000
                        -----------------------------------------
Magnitude (a.u.)       :      0.00000
Magnitude (Debye)      :      0.00000

Rotational constants in cm-1:     0.000000     0.000000     0.000000
Rotational constants in MHz :     0.000000     0.000000     0.000000

                             ****ORCA TERMINATED NORMALLY****
TOTAL RUN TIME: 0 days 0 hours 7 minutes 35 seconds 306 msec
