                         Program Version 4.2.0 -  RELEASE  -
|  1> #
|  2> # 24_Cr CCSD(T)/aug-cc-pVTZ
|  3> #
|  4> ! CCSD(T) aug-cc-pVTZ tightscf
|  5>
|  6> *xyz 0 7
|  7>  Cr 0.0 0.0 0.0
|  8> *
|  9>
| 10> %maxcore 5000
| 11>
| 12> %pal
| 13> nprocs 24
| 14> end
| 15>
| 16>
| 17>                          ****END OF INPUT****

CARTESIAN COORDINATES (ANGSTROEM)
---------------------------------
  Cr     0.000000    0.000000    0.000000

 Total Charge           Charge          ....    0
 Multiplicity           Mult            ....    7
 Number of Electrons    NEL             ....   24
 Basis Dimension        Dim             ....   93

ORBITAL ENERGIES
----------------
                 SPIN UP ORBITALS
  NO   OCC          E(Eh)            E(eV)
   0   1.0000    -220.388751     -5997.0828
   1   1.0000     -26.260571      -714.5865
   2   1.0000     -22.189643      -603.8109
   3   1.0000     -22.189643      -603.8109
   4   1.0000     -22.189643      -603.8109
   5   1.0000      -3.458869       -94.1206
   6   1.0000      -2.261692       -61.5438
   7   1.0000      -2.261692       -61.5438
   8   1.0000      -2.261692       -61.5438
   9   1.0000      -0.373613       -10.1665
  10   1.0000      -0.373613       -10.1665
  11   1.0000      -0.373613       -10.1665
  12   1.0000      -0.373613       -10.1665
  13   1.0000      -0.373613       -10.1665
  14   1.0000      -0.222080        -6.0431
  15   0.0000       0.017710         0.4819
  16   0.0000       0.017710         0.4819
  17   0.0000       0.017710         0.4819
  18   0.0000       0.032207         0.8764
  19   0.0000       0.065274         1.7762

                 SPIN DOWN ORBITALS
  NO   OCC          E(Eh)            E(eV)
   0   1.0000    -220.387128     -5997.0386
   1   1.0000     -26.159602      -711.8390
   2   1.0000     -22.091221      -601.1327
   3   1.0000     -22.091221      -601.1327
   4   1.0000     -22.091221      -601.1327
   5   1.0000      -3.111319       -84.6633
   6   1.0000      -1.839897       -50.0661
   7   1.0000      -1.839897       -50.0661
   8   1.0000      -1.839897       -50.0661
   9   0.0000       0.011195         0.3046
  10   0.0000       0.027318         0.7434
  11   0.0000       0.027318         0.7434
  12   0.0000       0.027318         0.7434
  13   0.0000       0.068127         1.8538

E(0)                                       ...  -1043.355945163
E(0)                                       ...  -1043.355945163
E(CORR)                                    ...     -0.424757841
E(TOT)                                     ...  -1043.780703004
E(CCSD(T))                                 ...  -1043.792549145

MULLIKEN ATOMIC CHARGES AND SPIN DENSITIES
------------------------------------------
   0 Cr:   -0.000000    6.000000
Sum of atomic charges       :   -0.0000000

LOEWDIN ATOMIC CHARGES AND SPIN DENSITIES
-----------------------------------------
   0 Cr:   -0.000000    6.000000

FINAL SINGLE POINT ENERGY     -1043.792549145408

DIPOLE MOMENT
-------------
                                X             Y             Z
Electronic contribution:     -0.00000       0.00000       0.00000
Nuclear contribution   :      0.00000       0.00000       0.00000
                        -----------------------------------------
Total Dipole Moment    :     -0.00000       0.00000       0.00000
                        -----------------------------------------
Magnitude (a.u.)       :      0.00000
Magnitude (Debye)      :      0.00000

Rotational constants in cm-1:     0.000000     0.000000     0.000000
Rotational constants in MHz :     0.000000     0.000000     0.000000

                             ****ORCA TERMINATED NORMALLY****
TOTAL RUN TIME: 0 days 0 hours 3 minutes 39 seconds 891 msec
