                         Program Version 4.2.0 -  RELEASE  -
|  1> #
|  2> # 27_Co CCSD(T)/aug-cc-pVTZ
|  3> #
|  4> ! CCSD(T) aug-cc-pVTZ tightscf
|  5>
|  6> *xyz 0 4
|  7>  Co 0.0 0.0 0.0
|  8> *
|  9>
| 10> %maxcore 5000
| 11>
| 12> %pal
| 13> nprocs 24
| 14> end
| 15>
| 16>
| 17>                          ****END OF INPUT****

CARTESIAN COORDINATES (ANGSTROEM)
---------------------------------
  Co     0.000000    0.000000    0.000000

 Total Charge           Charge          ....    0
 Multiplicity           Mult            ....    4
 Number of Electrons    NEL             ....   27
 Basis Dimension        Dim             ....   93

ORBITAL ENERGIES
----------------
                 SPIN UP ORBITALS
  NO   OCC          E(Eh)            E(eV)
   0   1.0000    -282.856904     -7696.9277
   1   1.0000     -34.666571      -943.3254
   2   1.0000     -29.921200      -814.1972
   3   1.0000     -29.921200      -814.1972
   4   1.0000     -29.921200      -814.1972
   5   1.0000      -4.393508      -119.5534
   6   1.0000      -2.907820       -79.1258
   7   1.0000      -2.907820       -79.1258
   8   1.0000      -2.907820       -79.1258
   9   1.0000      -0.498881       -13.5752
  10   1.0000      -0.498881       -13.5752
  11   1.0000      -0.446635       -12.1536
  12   1.0000      -0.446635       -12.1536
  13   1.0000      -0.446635       -12.1536
  14   1.0000      -0.232393        -6.3237
  15   0.0000       0.022602         0.6150
  16   0.0000       0.022602         0.6150
  17   0.0000       0.022602         0.6150
  18   0.0000       0.033525         0.9123
  19   0.0000       0.083906         2.2832

                 SPIN DOWN ORBITALS
  NO   OCC          E(Eh)            E(eV)
   0   1.0000    -282.853934     -7696.8468
   1   1.0000     -34.601505      -941.5548
   2   1.0000     -29.859463      -812.5173
   3   1.0000     -29.859463      -812.5173
   4   1.0000     -29.859463      -812.5173
   5   1.0000      -4.210465      -114.5726
   6   1.0000      -2.692935       -73.2785
   7   1.0000      -2.692935       -73.2785
   8   1.0000      -2.692935       -73.2785
   9   1.0000      -0.379155       -10.3173
  10   1.0000      -0.379155       -10.3173
  11   1.0000      -0.379155       -10.3173
  12   0.0000       0.007147         0.1945
  13   0.0000       0.032032         0.8716
  14   0.0000       0.032032         0.8716
  15   0.0000       0.032032         0.8716
  16   0.0000       0.058875         1.6021

E(0)                                       ...  -1381.365243740
E(0)                                       ...  -1381.365243740
E(CORR)                                    ...     -0.635594788
E(TOT)                                     ...  -1382.000838529
E(CCSD(T))                                 ...  -1382.022637033

MULLIKEN ATOMIC CHARGES AND SPIN DENSITIES
------------------------------------------
   0 Co:    0.000000    3.000000
Sum of atomic charges       :    0.0000000

LOEWDIN ATOMIC CHARGES AND SPIN DENSITIES
-----------------------------------------
   0 Co:    0.000000    3.000000

FINAL SINGLE POINT ENERGY     -1382.022637032813

DIPOLE MOMENT
-------------
                                X             Y             Z
Electronic contribution:      0.00000       0.00000       0.00000
Nuclear contribution   :      0.00000       0.00000       0.00000
                        -----------------------------------------
Total Dipole Moment    :      0.00000       0.00000       0.00000
                        -----------------------------------------
Magnitude (a.u.)       :      0.00000
Magnitude (Debye)      :      0.00000

Rotational constants in cm-1:     0.000000     0.000000     0.000000
Rotational constants in MHz :     0.000000     0.000000     0.000000

                             ****ORCA TERMINATED NORMALLY****
TOTAL RUN TIME: 0 days 0 hours 4 minutes 18 seconds 680 msec
