                         Program Version 4.2.0 -  RELEASE  -
|  1> #
|  2> # 28_Ni CCSD(T)/aug-cc-pVTZ
|  3> #
|  4> ! CCSD(T) aug-cc-pVTZ tightscf slowconv kdiis
|  5>
|  6> *xyz 0 3
|  7>  Ni 0.0 0.0 0.0
|  8> *
|  9>
| 10> %maxcore 5000
| 11>
| 12> %pal
| 13> nprocs 24
| 14> end
| 15>
| 16>
| 17>                          ****END OF INPUT****

CARTESIAN COORDINATES (ANGSTROEM)
---------------------------------
  Ni     0.000000    0.000000    0.000000

 Total Charge           Charge          ....    0
 Multiplicity           Mult            ....    3
 Number of Electrons    NEL             ....   28
 Basis Dimension        Dim             ....   93

ORBITAL ENERGIES
----------------
                 SPIN UP ORBITALS
  NO   OCC          E(Eh)            E(eV)
   0   1.0000    -305.398214     -8310.3079
   1   1.0000     -37.690558     -1025.6122
   2   1.0000     -32.736023      -890.7925
   3   1.0000     -32.722122      -890.4142
   4   1.0000     -32.694427      -889.6606
   5   1.0000      -4.705958      -128.0556
   6   1.0000      -3.158684       -85.9522
   7   1.0000      -3.128462       -85.1298
   8   1.0000      -3.069079       -83.5139
   9   1.0000      -0.549076       -14.9411
  10   1.0000      -0.491825       -13.3832
  11   1.0000      -0.469589       -12.7782
  12   1.0000      -0.458100       -12.4655
  13   1.0000      -0.452745       -12.3198
  14   1.0000      -0.236309        -6.4303
  15   0.0000       0.022214         0.6045
  16   0.0000       0.022925         0.6238
  17   0.0000       0.024221         0.6591
  18   0.0000       0.035165         0.9569
  19   0.0000       0.082957         2.2574

                 SPIN DOWN ORBITALS
  NO   OCC          E(Eh)            E(eV)
   0   1.0000    -305.395664     -8310.2385
   1   1.0000     -37.653730     -1024.6101
   2   1.0000     -32.684553      -889.3919
   3   1.0000     -32.683302      -889.3579
   4   1.0000     -32.682803      -889.3443
   5   1.0000      -4.605903      -125.3330
   6   1.0000      -3.039691       -82.7142
   7   1.0000      -2.998046       -81.5810
   8   1.0000      -2.976590       -80.9971
   9   1.0000      -0.474344       -12.9076
  10   1.0000      -0.431665       -11.7462
  11   1.0000      -0.410281       -11.1643
  12   1.0000      -0.401023       -10.9124
  13   0.0000       0.006241         0.1698
  14   0.0000       0.031698         0.8626
  15   0.0000       0.031838         0.8664
  16   0.0000       0.032139         0.8745
  17   0.0000       0.059551         1.6205

E(0)                                       ...  -1506.828387460
E(0)                                       ...  -1506.828387460
E(CORR)                                    ...     -0.717895970
E(TOT)                                     ...  -1507.546283430
E(CCSD(T))                                 ...  -1507.571160470

MULLIKEN ATOMIC CHARGES AND SPIN DENSITIES
------------------------------------------
   0 Ni:    0.000000    2.000000
Sum of atomic charges       :    0.0000000

LOEWDIN ATOMIC CHARGES AND SPIN DENSITIES
-----------------------------------------
   0 Ni:    0.000000    2.000000

FINAL SINGLE POINT ENERGY     -1507.571160469729

DIPOLE MOMENT
-------------
                                X             Y             Z
Electronic contribution:     -0.00000      -0.00000      -0.00000
Nuclear contribution   :      0.00000       0.00000       0.00000
                        -----------------------------------------
Total Dipole Moment    :     -0.00000      -0.00000      -0.00000
                        -----------------------------------------
Magnitude (a.u.)       :      0.00000
Magnitude (Debye)      :      0.00000

Rotational constants in cm-1:     0.000000     0.000000     0.000000
Rotational constants in MHz :     0.000000     0.000000     0.000000

                             ****ORCA TERMINATED NORMALLY****
TOTAL RUN TIME: 0 days 0 hours 3 minutes 55 seconds 884 msec
