                         Program Version 4.2.0 -  RELEASE  -
|  1> #
|  2> # 35_Br CCSD(T)/aug-cc-pVTZ
|  3> #
|  4> ! CCSD(T) aug-cc-pVTZ tightscf
|  5>
|  6> *xyz 0 2
|  7>  Br 0.0 0.0 0.0
|  8> *
|  9>
| 10> %maxcore 5000
| 11>
| 12> %pal
| 13> nprocs 24
| 14> end
| 15>
| 16>
| 17>                          ****END OF INPUT****

CARTESIAN COORDINATES (ANGSTROEM)
---------------------------------
  Br     0.000000    0.000000    0.000000

 Total Charge           Charge          ....    0
 Multiplicity           Mult            ....    2
 Number of Electrons    NEL             ....   35
 Basis Dimension        Dim             ....   59

ORBITAL ENERGIES
----------------
                 SPIN UP ORBITALS
  NO   OCC          E(Eh)            E(eV)
   0   1.0000    -490.061773    -13335.2588
   1   1.0000     -65.200196     -1774.1875
   2   1.0000     -58.560438     -1593.5105
   3   1.0000     -58.553143     -1593.3120
   4   1.0000     -58.553143     -1593.3120
   5   1.0000      -9.875456      -268.7248
   6   1.0000      -7.498792      -204.0525
   7   1.0000      -7.475404      -203.4161
   8   1.0000      -7.475404      -203.4161
   9   1.0000      -3.233427       -87.9860
  10   1.0000      -3.227891       -87.8354
  11   1.0000      -3.227891       -87.8354
  12   1.0000      -3.211499       -87.3893
  13   1.0000      -3.211499       -87.3893
  14   1.0000      -1.048218       -28.5235
  15   1.0000      -0.524174       -14.2635
  16   1.0000      -0.454378       -12.3643
  17   1.0000      -0.454378       -12.3643
  18   0.0000       0.088048         2.3959
  19   0.0000       0.089647         2.4394
  20   0.0000       0.095192         2.5903
  21   0.0000       0.095192         2.5903
  22   0.0000       0.247740         6.7414

                 SPIN DOWN ORBITALS
  NO   OCC          E(Eh)            E(eV)
   0   1.0000    -490.057629    -13335.1460
   1   1.0000     -65.198074     -1774.1298
   2   1.0000     -58.551918     -1593.2787
   3   1.0000     -58.551918     -1593.2787
   4   1.0000     -58.549132     -1593.2029
   5   1.0000      -9.867375      -268.5049
   6   1.0000      -7.473330      -203.3597
   7   1.0000      -7.473330      -203.3597
   8   1.0000      -7.470003      -203.2691
   9   1.0000      -3.222956       -87.7011
  10   1.0000      -3.219899       -87.6179
  11   1.0000      -3.219899       -87.6179
  12   1.0000      -3.211042       -87.3769
  13   1.0000      -3.211042       -87.3769
  14   1.0000      -0.941257       -25.6129
  15   1.0000      -0.434238       -11.8162
  16   1.0000      -0.434238       -11.8162
  17   0.0000      -0.049524        -1.3476
  18   0.0000       0.094047         2.5591
  19   0.0000       0.095870         2.6088
  20   0.0000       0.095870         2.6088
  21   0.0000       0.103435         2.8146

E(0)                                       ...  -2572.445558389
E(0)                                       ...  -2572.445558389
E(CORR)                                    ...     -0.216081925
E(TOT)                                     ...  -2572.661640314
E(CCSD(T))                                 ...  -2572.668518103

MULLIKEN ATOMIC CHARGES AND SPIN DENSITIES
------------------------------------------
   0 Br:   -0.000000    1.000000
Sum of atomic charges       :   -0.0000000

LOEWDIN ATOMIC CHARGES AND SPIN DENSITIES
-----------------------------------------
   0 Br:    0.000000    1.000000

FINAL SINGLE POINT ENERGY     -2572.668518103221

DIPOLE MOMENT
-------------
                                X             Y             Z
Electronic contribution:     -0.00000       0.00000      -0.00000
Nuclear contribution   :      0.00000       0.00000       0.00000
                        -----------------------------------------
Total Dipole Moment    :     -0.00000       0.00000      -0.00000
                        -----------------------------------------
Magnitude (a.u.)       :      0.00000
Magnitude (Debye)      :      0.00000

Rotational constants in cm-1:     0.000000     0.000000     0.000000
Rotational constants in MHz :     0.000000     0.000000     0.000000

                             ****ORCA TERMINATED NORMALLY****
TOTAL RUN TIME: 0 days 0 hours 0 minutes 32 seconds 796 msec
