                         Program Version 4.2.0 -  RELEASE  -
|  1> #
|  2> # 36_Kr CCSD(T)/aug-cc-pVTZ
|  3> #
|  4> ! CCSD(T) aug-cc-pVTZ tightscf
|  5>
|  6> *xyz 0 1
|  7>  Kr 0.0 0.0 0.0
|  8> *
|  9>
| 10> %maxcore 5000
| 11>
| 12> %pal
| 13> nprocs 24
| 14> end
| 15>
| 16>
| 17>                          ****END OF INPUT****

CARTESIAN COORDINATES (ANGSTROEM)
---------------------------------
  Kr     0.000000    0.000000    0.000000

 Total Charge           Charge          ....    0
 Multiplicity           Mult            ....    1
 Number of Electrons    NEL             ....   36
 Basis Dimension        Dim             ....   59

ORBITAL ENERGIES
----------------

  NO   OCC          E(Eh)            E(eV)
   0   2.0000    -520.165499    -14154.4228
   1   2.0000     -69.902930     -1902.1554
   2   2.0000     -63.009495     -1714.5755
   3   2.0000     -63.009495     -1714.5755
   4   2.0000     -63.009495     -1714.5755
   5   2.0000     -10.849548      -295.2312
   6   2.0000      -8.331514      -226.7120
   7   2.0000      -8.331514      -226.7120
   8   2.0000      -8.331514      -226.7120
   9   2.0000      -3.825278      -104.0911
  10   2.0000      -3.825278      -104.0911
  11   2.0000      -3.825278      -104.0911
  12   2.0000      -3.825278      -104.0911
  13   2.0000      -3.825278      -104.0911
  14   2.0000      -1.153168       -31.3793
  15   2.0000      -0.524338       -14.2680
  16   2.0000      -0.524338       -14.2680
  17   2.0000      -0.524338       -14.2680
  18   0.0000       0.104759         2.8506
  19   0.0000       0.105841         2.8801
  20   0.0000       0.105841         2.8801
  21   0.0000       0.105841         2.8801
  22   0.0000       0.304856         8.2955

E(0)                                       ...  -2752.052286916
E(0)                                       ...  -2752.052286916
E(CORR)                                    ...     -0.251748469
E(TOT)                                     ...  -2752.304035385
E(CCSD(T))                                 ...  -2752.311742873

MULLIKEN ATOMIC CHARGES
-----------------------
   0 Kr:   -0.000000
Sum of atomic charges:   -0.0000000

LOEWDIN ATOMIC CHARGES
----------------------
   0 Kr:   -0.000000

FINAL SINGLE POINT ENERGY     -2752.311742873274

DIPOLE MOMENT
-------------
                                X             Y             Z
Electronic contribution:     -0.00000      -0.00000       0.00000
Nuclear contribution   :      0.00000       0.00000       0.00000
                        -----------------------------------------
Total Dipole Moment    :     -0.00000      -0.00000       0.00000
                        -----------------------------------------
Magnitude (a.u.)       :      0.00000
Magnitude (Debye)      :      0.00000

Rotational constants in cm-1:     0.000000     0.000000     0.000000
Rotational constants in MHz :     0.000000     0.000000     0.000000

                             ****ORCA TERMINATED NORMALLY****
TOTAL RUN TIME: 0 days 0 hours 0 minutes 25 seconds 737 msec
