                         Program Version 4.2.0 -  RELEASE  -
|  1> #
|  2> # 38_Sr CCSD(T)/aug-cc-pVTZ-PP
|  3> #
|  4> ! CCSD(T) aug-cc-pVTZ-PP tightscf
|  5>
|  6> *xyz 0 1
|  7>  Sr 0.0 0.0 0.0
|  8> *
|  9>
| 10> %maxcore 5000
| 11>
| 12> %pal
| 13> nprocs 15
| 14> end
| 15>
| 16> %method
| 17> NewNCore Sr 28 end
| 18> end
| 19>
| 20>
| 21>                          ****END OF INPUT****

CARTESIAN COORDINATES (ANGSTROEM)
---------------------------------
  Sr     0.000000    0.000000    0.000000

 Total Charge           Charge          ....    0
 Multiplicity           Mult            ....    1
 Number of Electrons    NEL             ....   10
 Basis Dimension        Dim             ....   54

ORBITAL ENERGIES
----------------

  NO   OCC          E(Eh)            E(eV)
   0   2.0000      -1.971870       -53.6573
   1   2.0000      -1.092947       -29.7406
   2   2.0000      -1.092947       -29.7406
   3   2.0000      -1.092947       -29.7406
   4   2.0000      -0.181274        -4.9327
   5   0.0000       0.009655         0.2627
   6   0.0000       0.009655         0.2627
   7   0.0000       0.009655         0.2627
   8   0.0000       0.022104         0.6015
   9   0.0000       0.029338         0.7983

E(0)                                       ...    -30.341223912
E(0)                                       ...    -30.341223912
E(CORR)                                    ...     -0.129898047
E(TOT)                                     ...    -30.471121959
E(CCSD(T))                                 ...    -30.474044359

MULLIKEN ATOMIC CHARGES
-----------------------
   0 Sr:   -0.000000
Sum of atomic charges:   -0.0000000

LOEWDIN ATOMIC CHARGES
----------------------
   0 Sr:    0.000000

FINAL SINGLE POINT ENERGY       -30.474044358810

DIPOLE MOMENT
-------------
                                X             Y             Z
Electronic contribution:      0.00000       0.00000       0.00000
Nuclear contribution   :      0.00000       0.00000       0.00000
                        -----------------------------------------
Total Dipole Moment    :      0.00000       0.00000       0.00000
                        -----------------------------------------
Magnitude (a.u.)       :      0.00000
Magnitude (Debye)      :      0.00000

Rotational constants in cm-1:     0.000000     0.000000     0.000000
Rotational constants in MHz :     0.000000     0.000000     0.000000

                             ****ORCA TERMINATED NORMALLY****
TOTAL RUN TIME: 0 days 0 hours 0 minutes 7 seconds 177 msec
