                         Program Version 4.2.0 -  RELEASE  -
|  1> # input to generate an atomic fitting density for Sr
|  2> # this file is use internally by ORCA
|  3> #
|  4> # atomic ground state (S=1): 1s2 2s2 2p6 3s2 3p6 4s2 3d10 4p6 5s2
|  5> #
|  6> ! RHF AllowRHF def2-SVP def2/J  NoMulliken NoLoewdin NoMayer NoPrintMOs
|  7>
|  8> %output print[p_atomdensfit] 2 end
|  9>
| 10> %scf
| 11>   guess hcore
| 12>   maxiter 1000
| 13>   maxdisk 500000
| 14>   SCFMode Conventional
| 15>   lshift 1.000000
| 16>   hftyp rohf
| 17>   rohf_case sahf
| 18>   rohf_numop   2
| 19>   rohf_norb[1] 1
| 20>   rohf_nel[1]  2
| 21> end
| 22>
| 23> %basis
| 24>   NewECP 38
| 25>     N_core 28
| 26>     lmax g
| 27>     s 2
| 28>       1       6.9334610000    135.2710429000  2
| 29>       2       4.1140038000     17.9440714000  2
| 30>     p 4
| 31>       1       7.2168166000     29.4380813000  2
| 32>       2       7.1736962000     58.8806749000  2
| 33>       3       3.0227988000      4.9362827000  2
| 34>       4       2.8656990000      9.7233521000  2
| 35>     d 4
| 36>       1       6.3215146000     11.9072392000  2
| 37>       2       6.3914995000     17.8595514000  2
| 38>       3       1.7697266000      2.1991802000  2
| 39>       4       1.6367717000      2.8935709000  2
| 40>     f 2
| 41>       1       4.2441984000     -5.5093333000  2
| 42>       2       4.2291645000     -7.3046417000  2
| 43>     g 1
| 44>       1       1.0000000000      0.0000000000  2
| 45>   end
| 46>   NewGTO 38
| 47>     s 8
| 48>      1      20.5897000000      0.0099512333
| 49>      2      12.6974000000     -0.0878773569
| 50>      3       7.9354800000      0.2845758393
| 51>      4       4.9573100000     -0.1474030870
| 52>      5       2.7967700000     -0.5175037122
| 53>      6       0.6511090000      0.7831108059
| 54>      7       0.2947840000      0.4950548260
| 55>      8       0.0386720000     -0.0122672674
| 56>     s 8
| 57>      1      20.5897000000     -0.0050863401
| 58>      2      12.6974000000      0.0446594504
| 59>      3       7.9354800000     -0.1478464132
| 60>      4       4.9573100000      0.0880438556
| 61>      5       2.7967700000      0.2599327412
| 62>      6       0.6511090000     -0.4875084009
| 63>      7       0.2947840000     -0.6250073990
| 64>      8       0.0386720000      0.9765409738
| 65>     s 1
| 66>      1       0.0684320000      1.0000000000
| 67>     s 1
| 68>      1       0.0189600000      1.0000000000
| 69>     s 1
| 70>      1       0.0093000000      1.0000000000
| 71>     p 7
| 72>      1      18.3882000000     -0.0012574542
| 73>      2      11.3236000000      0.0109968981
| 74>      3       3.5860800000     -0.1378244793
| 75>      4       0.9077800000      0.3936267373
| 76>      5       0.4431020000      0.5012875145
| 77>      6       0.2147660000      0.2318994822
| 78>      7       0.0389240000     -0.0011672742
| 79>     p 7
| 80>      1      18.3882000000      0.0001133080
| 81>      2      11.3236000000     -0.0035421074
| 82>      3       3.5860800000      0.0548607900
| 83>      4       0.9077800000     -0.1761250092
| 84>      5       0.4431020000     -0.2435071571
| 85>      6       0.2147660000     -0.1864360395
| 86>      7       0.0389240000      1.0068107749
| 87>     p 1
| 88>      1       0.0863020000      1.0000000000
| 89>     p 1
| 90>      1       0.0172030000      1.0000000000
| 91>     p 1
| 92>      1       0.0076000000      1.0000000000
| 93>   end
| 94>   NewAuxGTO 38
| 95>     S 1
| 96>      1 1310.72 1.0
| 97>     S 1
| 98>      1  655.36 1.0
| 99>     S 1
|100>      1  327.68 1.0
|101>     S 1
|102>      1  163.84 1.0
|103>     S 1
|104>      1   81.82 1.0
|105>     S 1
|106>      1   40.96 1.0
|107>     S 1
|108>      1   20.48 1.0
|109>     S 1
|110>      1   10.24 1.0
|111>     S 1
|112>      1    5.12 1.0
|113>     S 1
|114>      1    2.56 1.0
|115>     S 1
|116>      1    1.28 1.0
|117>     S 1
|118>      1    0.64 1.0
|119>     S 1
|120>      1    0.32 1.0
|121>     S 1
|122>      1    0.16 1.0
|123>     S 1
|124>      1    0.08 1.0
|125>     S 1
|126>      1    0.04 1.0
|127>     S 1
|128>      1    0.02 1.0
|129>     S 1
|130>      1    0.01 1.0
|131>   end
|132> end
|133>
|134> * xyz 0 1
|135> 38  0.0 0.0 0.0
|136> *
|137>
|138>
|139>                          ****END OF INPUT****

CARTESIAN COORDINATES (ANGSTROEM)
---------------------------------
  Sr     0.000000    0.000000    0.000000

 Total Charge           Charge          ....    0
 Multiplicity           Mult            ....    1
 Number of Electrons    NEL             ....   10
 Basis Dimension        Dim             ....   20

ORBITAL ENERGIES
----------------

  NO   OCC          E(Eh)            E(eV)
   0   2.0000      -1.949924       -53.0601
   1   2.0000      -1.092763       -29.7356
   2   2.0000      -1.092763       -29.7356
   3   2.0000      -1.092763       -29.7356
   4   2.0000      -0.202990        -5.5236
   5   0.0000       0.009678         0.2634
   6   0.0000       0.009678         0.2634
   7   0.0000       0.009678         0.2634
   8   0.0000       0.022106         0.6015
   9   0.0000       0.034827         0.9477

--------------------------
ATOM BASIS FOR ELEMENT Sr
--------------------------
 NewGTO Sr
 S 19
    1         20.589700000000         0.009744445083
    2         12.697400000000        -0.086051251396
    3          7.935480000000         0.278662307932
    4          4.957310000000        -0.144340027322
    5          2.796770000000        -0.506749902450
    6          0.651109000000         0.766837638343
    7          0.294784000000         0.484767507689
    8          0.038672000000        -0.012012351625
    9         20.589700000000         0.000325126070
   10         12.697400000000        -0.002854695379
   11          7.935480000000         0.009450552318
   12          4.957310000000        -0.005627888061
   13          2.796770000000        -0.016615269297
   14          0.651109000000         0.031162228075
   15          0.294784000000         0.039951358952
   16          0.038672000000        -0.062421883385
   17          0.068432000000        -0.016586542328
   18          0.018960000000        -0.026474738258
   19          0.009300000000        -0.000640403735
 S 19
    1         20.589700000000        -0.001081681046
    2         12.697400000000         0.009552109623
    3          7.935480000000        -0.030932878603
    4          4.957310000000         0.016022448733
    5          2.796770000000         0.056251716749
    6          0.651109000000        -0.085122727042
    7          0.294784000000        -0.053811563456
    8          0.038672000000         0.001333429761
    9         20.589700000000         0.002924297104
   10         12.697400000000        -0.025676124462
   11          7.935480000000         0.085001558968
   12          4.957310000000        -0.050619185285
   13          2.796770000000        -0.149443518787
   14          0.651109000000         0.280283932423
   15          0.294784000000         0.359336436586
   16          0.038672000000        -0.561444159328
   17          0.068432000000        -0.357199834420
   18          0.018960000000        -0.269235450317
   19          0.009300000000        -0.000645591439
 S 19
    1         20.589700000000        -0.000121509677
    2         12.697400000000         0.001073027726
    3          7.935480000000        -0.003474817365
    4          4.957310000000         0.001799867507
    5          2.796770000000         0.006318986495
    6          0.651109000000        -0.009562185720
    7          0.294784000000        -0.006044874049
    8          0.038672000000         0.000149789644
    9         20.589700000000        -0.000549690140
   10         12.697400000000         0.004826429040
   11          7.935480000000        -0.015978034115
   12          4.957310000000         0.009515061597
   13          2.796770000000         0.028091409975
   14          0.651109000000        -0.052685930572
   15          0.294784000000        -0.067545700484
   16          0.038672000000         0.105536581218
   17          0.068432000000        -0.127486538859
   18          0.018960000000         1.994773624935
   19          0.009300000000        -2.424756368559
 S 19
    1         20.589700000000        -0.001628894485
    2         12.697400000000         0.014384442377
    3          7.935480000000        -0.046581564428
    4          4.957310000000         0.024128072189
    5          2.796770000000         0.084708992059
    6          0.651109000000        -0.128185606160
    7          0.294784000000        -0.081034385524
    8          0.038672000000         0.002008000778
    9         20.589700000000         0.004821853845
   10         12.697400000000        -0.042337189097
   11          7.935480000000         0.140158499418
   12          4.957310000000        -0.083465634484
   13          2.796770000000        -0.246416413951
   14          0.651109000000         0.462158292819
   15          0.294784000000         0.592507435744
   16          0.038672000000        -0.925761501722
   17          0.068432000000        -1.864669602802
   18          0.018960000000         4.183216926557
   19          0.009300000000        -2.099284296967
 S 19
    1         20.589700000000         0.065188724258
    2         12.697400000000        -0.575668624662
    3          7.935480000000         1.864204703018
    4          4.957310000000        -0.965610884960
    5          2.796770000000        -3.390072946761
    6          0.651109000000         5.130016838163
    7          0.294784000000         3.243014365349
    8          0.038672000000        -0.080360643534
    9         20.589700000000        -0.034136840129
   10         12.697400000000         0.299730747172
   11          7.935480000000        -0.992267381219
   12          4.957310000000         0.590904061436
   13          2.796770000000         1.744531874808
   14          0.651109000000        -3.271900033372
   15          0.294784000000        -4.194721005568
   16          0.038672000000         6.554029507732
   17          0.068432000000        -3.249147606621
   18          0.018960000000        -5.051790188047
   19          0.009300000000         1.769579988672
 P 17
    1         18.388200000000         0.001240763779
    2         11.323600000000        -0.010850934244
    3          3.586080000000         0.135995109572
    4          0.907780000000        -0.388402057034
    5          0.443102000000        -0.494633832886
    6          0.214766000000        -0.228821437612
    7          0.038924000000         0.001151780754
    8         18.388200000000         0.000000036228
    9         11.323600000000        -0.000001132533
   10          3.586080000000         0.000017540877
   11          0.907780000000        -0.000056313210
   12          0.443102000000        -0.000077857596
   13          0.214766000000        -0.000059610001
   14          0.038924000000         0.000321911960
   15          0.086302000000        -0.025566124046
   16          0.017203000000        -0.001190462891
   17          0.007600000000         0.000317443031
 P 17
    1         18.388200000000        -0.000040479293
    2         11.323600000000         0.000354006258
    3          3.586080000000        -0.004436771875
    4          0.907780000000         0.012671421261
    5          0.443102000000         0.016137179381
    6          0.214766000000         0.007465184020
    7          0.038924000000        -0.000037576266
    8         18.388200000000         0.000032340044
    9         11.323600000000        -0.001010978111
   10          3.586080000000         0.015658208966
   11          0.907780000000        -0.050269093795
   12          0.443102000000        -0.069501112736
   13          0.214766000000        -0.053212038421
   14          0.038924000000         0.287361036954
   15          0.086302000000         0.044010214652
   16          0.017203000000        -0.202885512697
   17          0.007600000000         1.008260773521
 P 17
    1         18.388200000000         0.000321564372
    2         11.323600000000        -0.002812198358
    3          3.586080000000         0.035245372907
    4          0.907780000000        -0.100660791268
    5          0.443102000000        -0.128192505947
    6          0.214766000000        -0.059302844956
    7          0.038924000000         0.000298502956
    8         18.388200000000        -0.000018176055
    9         11.323600000000         0.000568199409
   10          3.586080000000        -0.008800373600
   11          0.907780000000         0.028252708013
   12          0.443102000000         0.039061667846
   13          0.214766000000         0.029906729380
   14          0.038924000000        -0.161505347691
   15          0.086302000000         0.140460844324
   16          0.017203000000         1.819037468187
   17          0.007600000000        -1.547928671814
 P 17
    1         18.388200000000        -0.001103573556
    2         11.323600000000         0.009651155440
    3          3.586080000000        -0.120958243046
    4          0.907780000000         0.345456763572
    5          0.443102000000         0.439942580034
    6          0.214766000000         0.203520840948
    7          0.038924000000        -0.001024429311
    8         18.388200000000         0.000255360213
    9         11.323600000000        -0.007982784082
   10          3.586080000000         0.123638781002
   11          0.907780000000        -0.396929782480
   12          0.443102000000        -0.548787723782
   13          0.214766000000        -0.420167567010
   14          0.038924000000         2.269031432245
   15          0.086302000000         0.034162382178
   16          0.017203000000        -2.916518615336
   17          0.007600000000         1.181903743503
 P 17
    1         18.388200000000         0.003208099794
    2         11.323600000000        -0.028056009140
    3          3.586080000000         0.351626869304
    4          0.907780000000        -1.004246401032
    5          0.443102000000        -1.278917651205
    6          0.214766000000        -0.591637199236
    7          0.038924000000         0.002978026651
    8         18.388200000000        -0.000405409686
    9         11.323600000000         0.012673462142
   10          3.586080000000        -0.196288837873
   11          0.907780000000         0.630165431016
   12          0.443102000000         0.871254987048
   13          0.214766000000         0.667057720661
   14          0.038924000000        -3.602312634634
   15          0.086302000000         2.581370118044
   16          0.017203000000         2.329744529483
   17          0.007600000000        -0.773446963197
 end
  // -----------------------------------------------
  // The basis set
  // -----------------------------------------------
  BAS[ATNO] = new BFNGauss[NSH];
  // Basis function   1 L = s
  InitBFNGauss(BAS[ATNO][  0]);
  BAS[ATNO][  0].l  = 0;
  BAS[ATNO][  0].ng = 19;
  BAS[ATNO][  0].a[  0] =        20.589700000000;     BAS[ATNO][  0].d[  0] =         0.009744445083;
  BAS[ATNO][  0].a[  1] =        12.697400000000;     BAS[ATNO][  0].d[  1] =        -0.086051251396;
  BAS[ATNO][  0].a[  2] =         7.935480000000;     BAS[ATNO][  0].d[  2] =         0.278662307932;
  BAS[ATNO][  0].a[  3] =         4.957310000000;     BAS[ATNO][  0].d[  3] =        -0.144340027322;
  BAS[ATNO][  0].a[  4] =         2.796770000000;     BAS[ATNO][  0].d[  4] =        -0.506749902450;
  BAS[ATNO][  0].a[  5] =         0.651109000000;     BAS[ATNO][  0].d[  5] =         0.766837638343;
  BAS[ATNO][  0].a[  6] =         0.294784000000;     BAS[ATNO][  0].d[  6] =         0.484767507689;
  BAS[ATNO][  0].a[  7] =         0.038672000000;     BAS[ATNO][  0].d[  7] =        -0.012012351625;
  BAS[ATNO][  0].a[  8] =        20.589700000000;     BAS[ATNO][  0].d[  8] =         0.000325126070;
  BAS[ATNO][  0].a[  9] =        12.697400000000;     BAS[ATNO][  0].d[  9] =        -0.002854695379;
  BAS[ATNO][  0].a[ 10] =         7.935480000000;     BAS[ATNO][  0].d[ 10] =         0.009450552318;
  BAS[ATNO][  0].a[ 11] =         4.957310000000;     BAS[ATNO][  0].d[ 11] =        -0.005627888061;
  BAS[ATNO][  0].a[ 12] =         2.796770000000;     BAS[ATNO][  0].d[ 12] =        -0.016615269297;
  BAS[ATNO][  0].a[ 13] =         0.651109000000;     BAS[ATNO][  0].d[ 13] =         0.031162228075;
  BAS[ATNO][  0].a[ 14] =         0.294784000000;     BAS[ATNO][  0].d[ 14] =         0.039951358952;
  BAS[ATNO][  0].a[ 15] =         0.038672000000;     BAS[ATNO][  0].d[ 15] =        -0.062421883385;
  BAS[ATNO][  0].a[ 16] =         0.068432000000;     BAS[ATNO][  0].d[ 16] =        -0.016586542328;
  BAS[ATNO][  0].a[ 17] =         0.018960000000;     BAS[ATNO][  0].d[ 17] =        -0.026474738258;
  BAS[ATNO][  0].a[ 18] =         0.009300000000;     BAS[ATNO][  0].d[ 18] =        -0.000640403735;

FINAL SINGLE POINT ENERGY       -30.341223736600

DIPOLE MOMENT
-------------
                                X             Y             Z
Electronic contribution:     -0.00000       0.00000      -0.00000
Nuclear contribution   :      0.00000       0.00000       0.00000
                        -----------------------------------------
Total Dipole Moment    :     -0.00000       0.00000      -0.00000
                        -----------------------------------------
Magnitude (a.u.)       :      0.00000
Magnitude (Debye)      :      0.00000

Rotational constants in cm-1:     0.000000     0.000000     0.000000
Rotational constants in MHz :     0.000000     0.000000     0.000000

                             ****ORCA TERMINATED NORMALLY****
TOTAL RUN TIME: 0 days 0 hours 0 minutes 1 seconds 442 msec
