                         Program Version 4.2.0 -  RELEASE  -
|  1> #
|  2> # 39_Y CCSD(T)/aug-cc-pVTZ-PP
|  3> #
|  4> ! CCSD(T) aug-cc-pVTZ-PP tightscf
|  5>
|  6> *xyz 0 2
|  7>  Y 0.0 0.0 0.0
|  8> *
|  9>
| 10> %maxcore 5000
| 11>
| 12> %pal
| 13> nprocs 24
| 14> end
| 15>
| 16>
| 17>                          ****END OF INPUT****

CARTESIAN COORDINATES (ANGSTROEM)
---------------------------------
   Y     0.000000    0.000000    0.000000

 Total Charge           Charge          ....    0
 Multiplicity           Mult            ....    2
 Number of Electrons    NEL             ....   11
 Basis Dimension        Dim             ....   88

ORBITAL ENERGIES
----------------
                 SPIN UP ORBITALS
  NO   OCC          E(Eh)            E(eV)
   0   1.0000      -2.242456       -61.0203
   1   1.0000      -1.325429       -36.0668
   2   1.0000      -1.325428       -36.0667
   3   1.0000      -1.302078       -35.4313
   4   1.0000      -0.238622        -6.4932
   5   1.0000      -0.210280        -5.7220
   6   0.0000       0.010299         0.2803
   7   0.0000       0.010300         0.2803
   8   0.0000       0.014037         0.3820
   9   0.0000       0.024816         0.6753
  10   0.0000       0.030529         0.8307

                 SPIN DOWN ORBITALS
  NO   OCC          E(Eh)            E(eV)
   0   1.0000      -2.214076       -60.2481
   1   1.0000      -1.298375       -35.3306
   2   1.0000      -1.264467       -34.4079
   3   1.0000      -1.264464       -34.4078
   4   1.0000      -0.195364        -5.3161
   5   0.0000       0.007932         0.2159
   6   0.0000       0.015351         0.4177
   7   0.0000       0.015351         0.4177
   8   0.0000       0.025254         0.6872
   9   0.0000       0.030510         0.8302

E(0)                                       ...    -37.711917631
E(0)                                       ...    -37.711917631
E(CORR)                                    ...     -0.250912192
E(TOT)                                     ...    -37.962829824
E(CCSD(T))                                 ...    -37.972354553

MULLIKEN ATOMIC CHARGES AND SPIN DENSITIES
------------------------------------------
   0  Y:   -0.000000    1.000000
Sum of atomic charges       :   -0.0000000

LOEWDIN ATOMIC CHARGES AND SPIN DENSITIES
-----------------------------------------
   0  Y:   -0.000000    1.000000

FINAL SINGLE POINT ENERGY       -37.972354552988

DIPOLE MOMENT
-------------
                                X             Y             Z
Electronic contribution:     -0.00000       0.00000      -0.00000
Nuclear contribution   :      0.00000       0.00000       0.00000
                        -----------------------------------------
Total Dipole Moment    :     -0.00000       0.00000      -0.00000
                        -----------------------------------------
Magnitude (a.u.)       :      0.00000
Magnitude (Debye)      :      0.00000

Rotational constants in cm-1:     0.000000     0.000000     0.000000
Rotational constants in MHz :     0.000000     0.000000     0.000000

                             ****ORCA TERMINATED NORMALLY****
TOTAL RUN TIME: 0 days 0 hours 1 minutes 17 seconds 894 msec
