                         Program Version 4.2.0 -  RELEASE  -
|  1> #
|  2> # 40_Zr CCSD(T)/aug-cc-pVTZ-PP
|  3> #
|  4> ! CCSD(T) aug-cc-pVTZ-PP verytightscf slowconv kdiis
|  5>
|  6> *xyz 0 3
|  7>  Zr 0.0 0.0 0.0
|  8> *
|  9>
| 10> %maxcore 5000
| 11>
| 12> %pal
| 13> nprocs 24
| 14> end
| 15>
| 16> %mdci
| 17> maxiter 100
| 18> maxdiis 25
| 19> end
| 20>
| 21>
| 22>                          ****END OF INPUT****

CARTESIAN COORDINATES (ANGSTROEM)
---------------------------------
  Zr     0.000000    0.000000    0.000000

 Total Charge           Charge          ....    0
 Multiplicity           Mult            ....    3
 Number of Electrons    NEL             ....   12
 Basis Dimension        Dim             ....   88

ORBITAL ENERGIES
----------------
                 SPIN UP ORBITALS
  NO   OCC          E(Eh)            E(eV)
   0   1.0000      -2.537725       -69.0550
   1   1.0000      -1.564513       -42.5726
   2   1.0000      -1.534999       -41.7694
   3   1.0000      -1.534993       -41.7693
   4   1.0000      -0.314068        -8.5462
   5   1.0000      -0.314057        -8.5459
   6   1.0000      -0.231246        -6.2925
   7   0.0000       0.010698         0.2911
   8   0.0000       0.012648         0.3442
   9   0.0000       0.012659         0.3445
  10   0.0000       0.026109         0.7105
  11   0.0000       0.038622         1.0510

                 SPIN DOWN ORBITALS
  NO   OCC          E(Eh)            E(eV)
   0   1.0000      -2.462254       -67.0013
   1   1.0000      -1.453053       -39.5396
   2   1.0000      -1.453047       -39.5394
   3   1.0000      -1.412005       -38.4226
   4   1.0000      -0.199692        -5.4339
   5   0.0000       0.012168         0.3311
   6   0.0000       0.012177         0.3314
   7   0.0000       0.016338         0.4446
   8   0.0000       0.027841         0.7576
   9   0.0000       0.039224         1.0673

E(0)                                       ...    -46.298102767
E(0)                                       ...    -46.298102767
E(CORR)                                    ...     -0.307226311
E(TOT)                                     ...    -46.605329078
E(CCSD(T))                                 ...    -46.618319720

MULLIKEN ATOMIC CHARGES AND SPIN DENSITIES
------------------------------------------
   0 Zr:   -0.000000    2.000000
Sum of atomic charges       :   -0.0000000

LOEWDIN ATOMIC CHARGES AND SPIN DENSITIES
-----------------------------------------
   0 Zr:   -0.000000    2.000000

FINAL SINGLE POINT ENERGY       -46.618319719762

DIPOLE MOMENT
-------------
                                X             Y             Z
Electronic contribution:      0.00000      -0.00000       0.00000
Nuclear contribution   :      0.00000       0.00000       0.00000
                        -----------------------------------------
Total Dipole Moment    :      0.00000      -0.00000       0.00000
                        -----------------------------------------
Magnitude (a.u.)       :      0.00000
Magnitude (Debye)      :      0.00000

Rotational constants in cm-1:     0.000000     0.000000     0.000000
Rotational constants in MHz :     0.000000     0.000000     0.000000

                             ****ORCA TERMINATED NORMALLY****
TOTAL RUN TIME: 0 days 0 hours 1 minutes 23 seconds 333 msec
