                         Program Version 4.2.0 -  RELEASE  -
|  1> #
|  2> # 41_Nb CCSD(T)/aug-cc-pVTZ-PP
|  3> #
|  4> ! CCSD(T) aug-cc-pVTZ-PP tightscf
|  5>
|  6> *xyz 0 6
|  7>  Nb 0.0 0.0 0.0
|  8> *
|  9>
| 10> %maxcore 5000
| 11>
| 12> %pal
| 13> nprocs 24
| 14> end
| 15>
| 16>
| 17>                          ****END OF INPUT****

CARTESIAN COORDINATES (ANGSTROEM)
---------------------------------
  Nb     0.000000    0.000000    0.000000

 Total Charge           Charge          ....    0
 Multiplicity           Mult            ....    6
 Number of Electrons    NEL             ....   13
 Basis Dimension        Dim             ....   88

ORBITAL ENERGIES
----------------
                 SPIN UP ORBITALS
  NO   OCC          E(Eh)            E(eV)
   0   1.0000      -2.639612       -71.8275
   1   1.0000      -1.616133       -43.9772
   2   1.0000      -1.616133       -43.9772
   3   1.0000      -1.616133       -43.9772
   4   1.0000      -0.212655        -5.7866
   5   1.0000      -0.212655        -5.7866
   6   1.0000      -0.212655        -5.7866
   7   1.0000      -0.212655        -5.7866
   8   1.0000      -0.212655        -5.7866
   9   0.0000      -0.008860        -0.2411
  10   0.0000       0.020279         0.5518
  11   0.0000       0.020279         0.5518
  12   0.0000       0.020279         0.5518
  13   0.0000       0.045395         1.2353

                 SPIN DOWN ORBITALS
  NO   OCC          E(Eh)            E(eV)
   0   1.0000      -2.466210       -67.1090
   1   1.0000      -1.370661       -37.2976
   2   1.0000      -1.370661       -37.2976
   3   1.0000      -1.370661       -37.2976
   4   0.0000       0.012404         0.3375
   5   0.0000       0.022551         0.6137
   6   0.0000       0.022551         0.6137
   7   0.0000       0.022551         0.6137
   8   0.0000       0.052071         1.4169

E(0)                                       ...    -56.087861343
E(0)                                       ...    -56.087861343
E(CORR)                                    ...     -0.347567143
E(TOT)                                     ...    -56.435428485
E(CCSD(T))                                 ...    -56.447217058

MULLIKEN ATOMIC CHARGES AND SPIN DENSITIES
------------------------------------------
   0 Nb:   -0.000000    5.000000
Sum of atomic charges       :   -0.0000000

LOEWDIN ATOMIC CHARGES AND SPIN DENSITIES
-----------------------------------------
   0 Nb:   -0.000000    5.000000

FINAL SINGLE POINT ENERGY       -56.447217058024

DIPOLE MOMENT
-------------
                                X             Y             Z
Electronic contribution:     -0.00000      -0.00000       0.00000
Nuclear contribution   :      0.00000       0.00000       0.00000
                        -----------------------------------------
Total Dipole Moment    :     -0.00000      -0.00000       0.00000
                        -----------------------------------------
Magnitude (a.u.)       :      0.00000
Magnitude (Debye)      :      0.00000

Rotational constants in cm-1:     0.000000     0.000000     0.000000
Rotational constants in MHz :     0.000000     0.000000     0.000000

                             ****ORCA TERMINATED NORMALLY****
TOTAL RUN TIME: 0 days 0 hours 0 minutes 46 seconds 104 msec
