                         Program Version 4.2.0 -  RELEASE  -
|  1> #
|  2> # 43_Tc CCSD(T)/aug-cc-pVTZ-PP
|  3> #
|  4> ! CCSD(T) aug-cc-pVTZ-PP tightscf
|  5>
|  6> *xyz 0 6
|  7>  Tc 0.0 0.0 0.0
|  8> *
|  9>
| 10> %maxcore 5000
| 11>
| 12> %pal
| 13> nprocs 24
| 14> end
| 15>
| 16>
| 17>                          ****END OF INPUT****

CARTESIAN COORDINATES (ANGSTROEM)
---------------------------------
  Tc     0.000000    0.000000    0.000000

 Total Charge           Charge          ....    0
 Multiplicity           Mult            ....    6
 Number of Electrons    NEL             ....   15
 Basis Dimension        Dim             ....   88

ORBITAL ENERGIES
----------------
                 SPIN UP ORBITALS
  NO   OCC          E(Eh)            E(eV)
   0   1.0000      -3.280950       -89.2792
   1   1.0000      -2.125556       -57.8393
   2   1.0000      -2.075781       -56.4849
   3   1.0000      -2.075777       -56.4848
   4   1.0000      -0.406832       -11.0705
   5   1.0000      -0.401082       -10.9140
   6   1.0000      -0.401081       -10.9140
   7   1.0000      -0.384091       -10.4516
   8   1.0000      -0.347757        -9.4630
   9   1.0000      -0.238292        -6.4843
  10   0.0000       0.014251         0.3878
  11   0.0000       0.017264         0.4698
  12   0.0000       0.017264         0.4698
  13   0.0000       0.032072         0.8727
  14   0.0000       0.053090         1.4447

                 SPIN DOWN ORBITALS
  NO   OCC          E(Eh)            E(eV)
   0   1.0000      -3.060752       -83.2873
   1   1.0000      -1.824382       -49.6440
   2   1.0000      -1.824379       -49.6439
   3   1.0000      -1.784925       -48.5703
   4   1.0000      -0.250422        -6.8143
   5   0.0000       0.008255         0.2246
   6   0.0000       0.023964         0.6521
   7   0.0000       0.024572         0.6686
   8   0.0000       0.024572         0.6686
   9   0.0000       0.064624         1.7585

E(0)                                       ...    -79.821248844
E(0)                                       ...    -79.821248844
E(CORR)                                    ...     -0.449267832
E(TOT)                                     ...    -80.270516676
E(CCSD(T))                                 ...    -80.286235781

MULLIKEN ATOMIC CHARGES AND SPIN DENSITIES
------------------------------------------
   0 Tc:    0.000000    5.000000
Sum of atomic charges       :    0.0000000

LOEWDIN ATOMIC CHARGES AND SPIN DENSITIES
-----------------------------------------
   0 Tc:    0.000000    5.000000

FINAL SINGLE POINT ENERGY       -80.286235780767

DIPOLE MOMENT
-------------
                                X             Y             Z
Electronic contribution:     -0.00000      -0.00000       0.00000
Nuclear contribution   :      0.00000       0.00000       0.00000
                        -----------------------------------------
Total Dipole Moment    :     -0.00000      -0.00000       0.00000
                        -----------------------------------------
Magnitude (a.u.)       :      0.00000
Magnitude (Debye)      :      0.00000

Rotational constants in cm-1:     0.000000     0.000000     0.000000
Rotational constants in MHz :     0.000000     0.000000     0.000000

                             ****ORCA TERMINATED NORMALLY****
TOTAL RUN TIME: 0 days 0 hours 0 minutes 48 seconds 722 msec
