                         Program Version 4.2.0 -  RELEASE  -
|  1> #
|  2> # 44_Ru CCSD(T)/aug-cc-pVTZ-PP
|  3> #
|  4> ! CCSD(T) aug-cc-pVTZ-PP tightscf slowconv
|  5>
|  6> *xyz 0 5
|  7>  Ru 0.0 0.0 0.0
|  8> *
|  9>
| 10> %maxcore 5000
| 11>
| 12> %pal
| 13> nprocs 24
| 14> end
| 15>
| 16>
| 17>                          ****END OF INPUT****

CARTESIAN COORDINATES (ANGSTROEM)
---------------------------------
  Ru     0.000000    0.000000    0.000000

 Total Charge           Charge          ....    0
 Multiplicity           Mult            ....    5
 Number of Electrons    NEL             ....   16
 Basis Dimension        Dim             ....   88

ORBITAL ENERGIES
----------------
                 SPIN UP ORBITALS
  NO   OCC          E(Eh)            E(eV)
   0   1.0000      -3.533260       -96.1449
   1   1.0000      -2.262631       -61.5693
   2   1.0000      -2.262630       -61.5693
   3   1.0000      -2.262629       -61.5693
   4   1.0000      -0.437899       -11.9158
   5   1.0000      -0.437898       -11.9158
   6   1.0000      -0.437898       -11.9158
   7   1.0000      -0.397545       -10.8177
   8   1.0000      -0.397544       -10.8177
   9   1.0000      -0.237922        -6.4742
  10   0.0000       0.017563         0.4779
  11   0.0000       0.017563         0.4779
  12   0.0000       0.017563         0.4779
  13   0.0000       0.034198         0.9306
  14   0.0000       0.059588         1.6215

                 SPIN DOWN ORBITALS
  NO   OCC          E(Eh)            E(eV)
   0   1.0000      -3.350551       -91.1731
   1   1.0000      -2.035009       -55.3754
   2   1.0000      -2.035008       -55.3754
   3   1.0000      -2.035006       -55.3753
   4   1.0000      -0.330833        -9.0024
   5   1.0000      -0.330833        -9.0024
   6   0.0000       0.006829         0.1858
   7   0.0000       0.024824         0.6755
   8   0.0000       0.024824         0.6755
   9   0.0000       0.024824         0.6755
  10   0.0000       0.068874         1.8742

E(0)                                       ...    -93.815772456
E(0)                                       ...    -93.815772456
E(CORR)                                    ...     -0.507997149
E(TOT)                                     ...    -94.323769605
E(CCSD(T))                                 ...    -94.341630340

MULLIKEN ATOMIC CHARGES AND SPIN DENSITIES
------------------------------------------
   0 Ru:   -0.000000    4.000000
Sum of atomic charges       :   -0.0000000

LOEWDIN ATOMIC CHARGES AND SPIN DENSITIES
-----------------------------------------
   0 Ru:   -0.000000    4.000000

FINAL SINGLE POINT ENERGY       -94.341630340066

DIPOLE MOMENT
-------------
                                X             Y             Z
Electronic contribution:      0.00000      -0.00000       0.00000
Nuclear contribution   :      0.00000       0.00000       0.00000
                        -----------------------------------------
Total Dipole Moment    :      0.00000      -0.00000       0.00000
                        -----------------------------------------
Magnitude (a.u.)       :      0.00000
Magnitude (Debye)      :      0.00000

Rotational constants in cm-1:     0.000000     0.000000     0.000000
Rotational constants in MHz :     0.000000     0.000000     0.000000

                             ****ORCA TERMINATED NORMALLY****
TOTAL RUN TIME: 0 days 0 hours 1 minutes 52 seconds 120 msec
