                         Program Version 4.2.0 -  RELEASE  -
|  1> #
|  2> # 45_Rh CCSD(T)/aug-cc-pVTZ-PP
|  3> #
|  4> ! CCSD(T) aug-cc-pVTZ-PP tightscf
|  5>
|  6> *xyz 0 4
|  7>  Rh 0.0 0.0 0.0
|  8> *
|  9>
| 10> %maxcore 5000
| 11>
| 12> %pal
| 13> nprocs 24
| 14> end
| 15>
| 16>
| 17>                          ****END OF INPUT****

CARTESIAN COORDINATES (ANGSTROEM)
---------------------------------
  Rh     0.000000    0.000000    0.000000

 Total Charge           Charge          ....    0
 Multiplicity           Mult            ....    4
 Number of Electrons    NEL             ....   17
 Basis Dimension        Dim             ....   88

ORBITAL ENERGIES
----------------
                 SPIN UP ORBITALS
  NO   OCC          E(Eh)            E(eV)
   0   1.0000      -3.785768      -103.0160
   1   1.0000      -2.431391       -66.1615
   2   1.0000      -2.431391       -66.1615
   3   1.0000      -2.431391       -66.1615
   4   1.0000      -0.479967       -13.0606
   5   1.0000      -0.479967       -13.0606
   6   1.0000      -0.437328       -11.9003
   7   1.0000      -0.437328       -11.9003
   8   1.0000      -0.437328       -11.9003
   9   1.0000      -0.237876        -6.4729
  10   0.0000       0.019308         0.5254
  11   0.0000       0.019308         0.5254
  12   0.0000       0.019308         0.5254
  13   0.0000       0.036122         0.9829
  14   0.0000       0.066763         1.8167

                 SPIN DOWN ORBITALS
  NO   OCC          E(Eh)            E(eV)
   0   1.0000      -3.652205       -99.3815
   1   1.0000      -2.269066       -61.7444
   2   1.0000      -2.269066       -61.7444
   3   1.0000      -2.269066       -61.7444
   4   1.0000      -0.388931       -10.5833
   5   1.0000      -0.388931       -10.5833
   6   1.0000      -0.388931       -10.5833
   7   0.0000       0.005256         0.1430
   8   0.0000       0.026989         0.7344
   9   0.0000       0.026989         0.7344
  10   0.0000       0.026989         0.7344
  11   0.0000       0.067402         1.8341

E(0)                                       ...   -109.390263646
E(0)                                       ...   -109.390263646
E(CORR)                                    ...     -0.565907035
E(TOT)                                     ...   -109.956170681
E(CCSD(T))                                 ...   -109.976112505

MULLIKEN ATOMIC CHARGES AND SPIN DENSITIES
------------------------------------------
   0 Rh:    0.000000    3.000000
Sum of atomic charges       :    0.0000000

LOEWDIN ATOMIC CHARGES AND SPIN DENSITIES
-----------------------------------------
   0 Rh:    0.000000    3.000000

FINAL SINGLE POINT ENERGY      -109.976112504604

DIPOLE MOMENT
-------------
                                X             Y             Z
Electronic contribution:     -0.00000      -0.00000       0.00000
Nuclear contribution   :      0.00000       0.00000       0.00000
                        -----------------------------------------
Total Dipole Moment    :     -0.00000      -0.00000       0.00000
                        -----------------------------------------
Magnitude (a.u.)       :      0.00000
Magnitude (Debye)      :      0.00000

Rotational constants in cm-1:     0.000000     0.000000     0.000000
Rotational constants in MHz :     0.000000     0.000000     0.000000

                             ****ORCA TERMINATED NORMALLY****
TOTAL RUN TIME: 0 days 0 hours 1 minutes 3 seconds 296 msec
