                         Program Version 4.2.0 -  RELEASE  -
|  1> #
|  2> # 46_Pd CCSD(T)/aug-cc-pVTZ-PP
|  3> #
|  4> ! CCSD(T) aug-cc-pVTZ-PP tightscf
|  5>
|  6> *xyz 0 1
|  7>  Pd 0.0 0.0 0.0
|  8> *
|  9>
| 10> %maxcore 5000
| 11>
| 12> %pal
| 13> nprocs 24
| 14> end
| 15>
| 16>
| 17>                          ****END OF INPUT****

CARTESIAN COORDINATES (ANGSTROEM)
---------------------------------
  Pd     0.000000    0.000000    0.000000

 Total Charge           Charge          ....    0
 Multiplicity           Mult            ....    1
 Number of Electrons    NEL             ....   18
 Basis Dimension        Dim             ....   88

ORBITAL ENERGIES
----------------

  NO   OCC          E(Eh)            E(eV)
   0   2.0000      -3.853284      -104.8532
   1   2.0000      -2.418570       -65.8126
   2   2.0000      -2.418570       -65.8126
   3   2.0000      -2.418570       -65.8126
   4   2.0000      -0.326411        -8.8821
   5   2.0000      -0.326411        -8.8821
   6   2.0000      -0.326411        -8.8821
   7   2.0000      -0.326411        -8.8821
   8   2.0000      -0.326411        -8.8821
   9   0.0000       0.009553         0.2599
  10   0.0000       0.026482         0.7206
  11   0.0000       0.026482         0.7206
  12   0.0000       0.026482         0.7206
  13   0.0000       0.077885         2.1194

E(0)                                       ...   -126.609016693
E(0)                                       ...   -126.609016693
E(CORR)                                    ...     -0.657230042
E(TOT)                                     ...   -127.266246735
E(CCSD(T))                                 ...   -127.292250691

MULLIKEN ATOMIC CHARGES
-----------------------
   0 Pd:   -0.000000
Sum of atomic charges:   -0.0000000

LOEWDIN ATOMIC CHARGES
----------------------
   0 Pd:    0.000000

FINAL SINGLE POINT ENERGY      -127.292250691389

DIPOLE MOMENT
-------------
                                X             Y             Z
Electronic contribution:     -0.00000       0.00000       0.00000
Nuclear contribution   :      0.00000       0.00000       0.00000
                        -----------------------------------------
Total Dipole Moment    :     -0.00000       0.00000       0.00000
                        -----------------------------------------
Magnitude (a.u.)       :      0.00000
Magnitude (Debye)      :      0.00000

Rotational constants in cm-1:     0.000000     0.000000     0.000000
Rotational constants in MHz :     0.000000     0.000000     0.000000

                             ****ORCA TERMINATED NORMALLY****
TOTAL RUN TIME: 0 days 0 hours 0 minutes 29 seconds 809 msec
