                         Program Version 4.2.0 -  RELEASE  -
|  1> #
|  2> # 47_Ag CCSD(T)/aug-cc-pVTZ-PP
|  3> #
|  4> ! CCSD(T) aug-cc-pVTZ-PP tightscf
|  5>
|  6> *xyz 0 2
|  7>  Ag 0.0 0.0 0.0
|  8> *
|  9>
| 10> %maxcore 5000
| 11>
| 12> %pal
| 13> nprocs 24
| 14> end
| 15>
| 16>
| 17>                          ****END OF INPUT****

CARTESIAN COORDINATES (ANGSTROEM)
---------------------------------
  Ag     0.000000    0.000000    0.000000

 Total Charge           Charge          ....    0
 Multiplicity           Mult            ....    2
 Number of Electrons    NEL             ....   19
 Basis Dimension        Dim             ....   88

ORBITAL ENERGIES
----------------
                 SPIN UP ORBITALS
  NO   OCC          E(Eh)            E(eV)
   0   1.0000      -4.574698      -124.4839
   1   1.0000      -3.045058       -82.8602
   2   1.0000      -3.030656       -82.4684
   3   1.0000      -2.972337       -80.8814
   4   1.0000      -0.739436       -20.1211
   5   1.0000      -0.689671       -18.7669
   6   1.0000      -0.671448       -18.2710
   7   1.0000      -0.666881       -18.1467
   8   1.0000      -0.661620       -18.0036
   9   1.0000      -0.281114        -7.6495
  10   0.0000       0.019929         0.5423
  11   0.0000       0.020331         0.5532
  12   0.0000       0.021843         0.5944
  13   0.0000       0.036166         0.9841
  14   0.0000       0.064576         1.7572

                 SPIN DOWN ORBITALS
  NO   OCC          E(Eh)            E(eV)
   0   1.0000      -4.493652      -122.2785
   1   1.0000      -2.951324       -80.3096
   2   1.0000      -2.905894       -79.0734
   3   1.0000      -2.894523       -78.7640
   4   1.0000      -0.678832       -18.4720
   5   1.0000      -0.640022       -17.4159
   6   1.0000      -0.630831       -17.1658
   7   1.0000      -0.620735       -16.8911
   8   1.0000      -0.269273        -7.3273
   9   0.0000      -0.009545        -0.2597
  10   0.0000       0.020329         0.5532
  11   0.0000       0.020540         0.5589
  12   0.0000       0.021411         0.5826
  13   0.0000       0.036962         1.0058

E(0)                                       ...   -145.921501739
E(0)                                       ...   -145.921501739
E(CORR)                                    ...     -0.679859903
E(TOT)                                     ...   -146.601361642
E(CCSD(T))                                 ...   -146.625056926

MULLIKEN ATOMIC CHARGES AND SPIN DENSITIES
------------------------------------------
   0 Ag:    0.000000    1.000000
Sum of atomic charges       :    0.0000000

LOEWDIN ATOMIC CHARGES AND SPIN DENSITIES
-----------------------------------------
   0 Ag:    0.000000    1.000000

FINAL SINGLE POINT ENERGY      -146.625056925933

DIPOLE MOMENT
-------------
                                X             Y             Z
Electronic contribution:      0.00000       0.00000       0.00000
Nuclear contribution   :      0.00000       0.00000       0.00000
                        -----------------------------------------
Total Dipole Moment    :      0.00000       0.00000       0.00000
                        -----------------------------------------
Magnitude (a.u.)       :      0.00000
Magnitude (Debye)      :      0.00000

Rotational constants in cm-1:     0.000000     0.000000     0.000000
Rotational constants in MHz :     0.000000     0.000000     0.000000

                             ****ORCA TERMINATED NORMALLY****
TOTAL RUN TIME: 0 days 0 hours 0 minutes 52 seconds 585 msec
