                         Program Version 4.2.0 -  RELEASE  -
|  1> #
|  2> # 48_Cd CCSD(T)/aug-cc-pVTZ-PP
|  3> #
|  4> ! CCSD(T) aug-cc-pVTZ-PP tightscf
|  5>
|  6> *xyz 0 1
|  7>  Cd 0.0 0.0 0.0
|  8> *
|  9>
| 10> %maxcore 5000
| 11>
| 12> %pal
| 13> nprocs 24
| 14> end
| 15>
| 16>
| 17>                          ****END OF INPUT****

CARTESIAN COORDINATES (ANGSTROEM)
---------------------------------
  Cd     0.000000    0.000000    0.000000

 Total Charge           Charge          ....    0
 Multiplicity           Mult            ....    1
 Number of Electrons    NEL             ....   20
 Basis Dimension        Dim             ....   88

ORBITAL ENERGIES
----------------

  NO   OCC          E(Eh)            E(eV)
   0   2.0000      -4.823818      -131.2628
   1   2.0000      -3.155488       -85.8652
   2   2.0000      -3.155488       -85.8652
   3   2.0000      -3.155488       -85.8652
   4   2.0000      -0.719723       -19.5847
   5   2.0000      -0.719723       -19.5847
   6   2.0000      -0.719723       -19.5847
   7   2.0000      -0.719723       -19.5847
   8   2.0000      -0.719723       -19.5847
   9   2.0000      -0.281027        -7.6471
  10   0.0000       0.021585         0.5874
  11   0.0000       0.021585         0.5874
  12   0.0000       0.021585         0.5874
  13   0.0000       0.038558         1.0492
  14   0.0000       0.069242         1.8842

E(0)                                       ...   -166.838764554
E(0)                                       ...   -166.838764554
E(CORR)                                    ...     -0.739801616
E(TOT)                                     ...   -167.578566170
E(CCSD(T))                                 ...   -167.603474428

MULLIKEN ATOMIC CHARGES
-----------------------
   0 Cd:   -0.000000
Sum of atomic charges:   -0.0000000

LOEWDIN ATOMIC CHARGES
----------------------
   0 Cd:   -0.000000

FINAL SINGLE POINT ENERGY      -167.603474427973

DIPOLE MOMENT
-------------
                                X             Y             Z
Electronic contribution:      0.00000       0.00000      -0.00000
Nuclear contribution   :      0.00000       0.00000       0.00000
                        -----------------------------------------
Total Dipole Moment    :      0.00000       0.00000      -0.00000
                        -----------------------------------------
Magnitude (a.u.)       :      0.00000
Magnitude (Debye)      :      0.00000

Rotational constants in cm-1:     0.000000     0.000000     0.000000
Rotational constants in MHz :     0.000000     0.000000     0.000000

                             ****ORCA TERMINATED NORMALLY****
TOTAL RUN TIME: 0 days 0 hours 0 minutes 30 seconds 703 msec
