                         Program Version 4.2.0 -  RELEASE  -
|  1> # input to generate an atomic fitting density for Cd
|  2> # this file is use internally by ORCA
|  3> #
|  4> # atomic ground state (S=1): 1s2 2s2 2p6 3s2 3p6 4s2 3d10 4p6 5s2 4d10
|  5> #
|  6> ! RHF AllowRHF def2-SVP def2/J  NoMulliken NoLoewdin NoMayer NoPrintMOs
|  7>
|  8> %output print[p_atomdensfit] 2 end
|  9>
| 10> %scf
| 11>   guess hcore
| 12>   maxiter 1000
| 13>   maxdisk 500000
| 14>   SCFMode Conventional
| 15>   lshift 1.000000
| 16>   hftyp rohf
| 17>   rohf_case sahf
| 18>   rohf_numop   2
| 19>   rohf_norb[1] 5
| 20>   rohf_nel[1]  10
| 21> end
| 22>
| 23> %basis
| 24>   NewECP 48
| 25>     N_core 28
| 26>     lmax g
| 27>     s 2
| 28>       1      13.3551760000    270.0394480000  2
| 29>       2       7.3083780000     38.8777660000  2
| 30>     p 4
| 31>       1      12.6597280000     64.6074700000  2
| 32>       2      12.2896390000    129.2194450000  2
| 33>       3       6.7861760000     10.6225580000  2
| 34>       4       6.4007430000     21.2650460000  2
| 35>     d 4
| 36>       1      11.1617220000     31.6639650000  2
| 37>       2      11.2196150000     47.4892160000  2
| 38>       3       4.5377330000      5.1862000000  2
| 39>       4       4.3357270000      7.5660630000  2
| 40>     f 2
| 41>       1      11.4789860000    -12.6327850000  2
| 42>       2      11.4870270000    -16.7601710000  2
| 43>     g 1
| 44>       1       1.0000000000      0.0000000000  2
| 45>   end
| 46>   NewGTO 48
| 47>     s 9
| 48>      1     257.4970000000      0.0007683617
| 49>      2      21.3546000000     -0.0782308314
| 50>      3      13.4806000000      0.4611451091
| 51>      4       8.4865100000     -0.5364625689
| 52>      5       5.3255100000     -0.4010117981
| 53>      6       1.6268600000      0.8557648978
| 54>      7       0.7404690000      0.4900987406
| 55>      8       0.1809330000      0.0220393762
| 56>      9       0.0850960000     -0.0083639378
| 57>     s 9
| 58>      1     257.4970000000     -0.0003077237
| 59>      2      21.3546000000      0.0296786853
| 60>      3      13.4806000000     -0.1841080255
| 61>      4       8.4865100000      0.2368326848
| 62>      5       5.3255100000      0.1408002442
| 63>      6       1.6268600000     -0.4342154577
| 64>      7       0.7404690000     -0.3987419755
| 65>      8       0.1809330000      0.3757959118
| 66>      9       0.0850960000      0.8020052248
| 67>     s 9
| 68>      1     257.4970000000      0.0004515858
| 69>      2      21.3546000000     -0.0255680058
| 70>      3      13.4806000000      0.2316402522
| 71>      4       8.4865100000     -0.2098393393
| 72>      5       5.3255100000     -0.5972851555
| 73>      6       1.6268600000      1.9263952520
| 74>      7       0.7404690000     -0.8564996389
| 75>      8       0.1809330000     -2.0198164048
| 76>      9       0.0850960000      1.5187750778
| 77>     s 9
| 78>      1     257.4970000000      0.0013171196
| 79>      2      21.3546000000     -0.1573669562
| 80>      3      13.4806000000      0.8694554305
| 81>      4       8.4865100000     -1.3887392015
| 82>      5       5.3255100000      0.0965753438
| 83>      6       1.6268600000      3.1065194007
| 84>      7       0.7404690000     -3.7046015202
| 85>      8       0.1809330000      2.2763295104
| 86>      9       0.0850960000     -0.5331350360
| 87>     s 1
| 88>      1       0.0363840000      1.0000000000
| 89>     s 1
| 90>      1       0.0156000000      1.0000000000
| 91>     p 8
| 92>      1     243.1650000000      0.0001130022
| 93>      2      13.9588000000      0.0696733676
| 94>      3       8.3100100000     -0.2536799795
| 95>      4       2.2020000000      0.4825014710
| 96>      5       1.1007200000      0.4845595114
| 97>      6       0.5359750000      0.1796435262
| 98>      7       0.2136540000      0.0152292989
| 99>      8       0.0854690000     -0.0001880037
|100>     p 8
|101>      1     243.1650000000     -0.0000463570
|102>      2      13.9588000000     -0.0206815078
|103>      3       8.3100100000      0.0797616860
|104>      4       2.2020000000     -0.1835751625
|105>      5       1.1007200000     -0.1956856281
|106>      6       0.5359750000     -0.0342728931
|107>      7       0.2136540000      0.4041845947
|108>      8       0.0854690000      0.6974831309
|109>     p 8
|110>      1     243.1650000000     -0.0000612328
|111>      2      13.9588000000     -0.0331781313
|112>      3       8.3100100000      0.1260090410
|113>      4       2.2020000000     -0.3064379668
|114>      5       1.1007200000     -0.3235992077
|115>      6       0.5359750000      0.1826021878
|116>      7       0.2136540000      0.6889983236
|117>      8       0.0854690000      0.3229136012
|118>     p 8
|119>      1     243.1650000000     -0.0000857987
|120>      2      13.9588000000     -0.0717357032
|121>      3       8.3100100000      0.2705921725
|122>      4       2.2020000000     -0.9018432151
|123>      5       1.1007200000     -0.2753749518
|124>      6       0.5359750000      1.4911157421
|125>      7       0.2136540000     -0.2065294680
|126>      8       0.0854690000     -0.7286944338
|127>     p 1
|128>      1       0.0338230000      1.0000000000
|129>     p 1
|130>      1       0.0134000000      1.0000000000
|131>     d 7
|132>      1      86.0666000000      0.0004540625
|133>      2      22.6386000000      0.0051310089
|134>      3      12.1384000000     -0.0164784717
|135>      4       3.4408100000      0.1815758054
|136>      5       1.7176100000      0.3758120626
|137>      6       0.8148490000      0.3866460146
|138>      7       0.3660070000      0.2397614049
|139>     d 7
|140>      1      86.0666000000      0.0007393197
|141>      2      22.6386000000      0.0085319597
|142>      3      12.1384000000     -0.0278815801
|143>      4       3.4408100000      0.3901505760
|144>      5       1.7176100000      0.6364047748
|145>      6       0.8148490000     -0.2039050779
|146>      7       0.3660070000     -0.7063026067
|147>     d 7
|148>      1      86.0666000000     -0.0003875319
|149>      2      22.6386000000     -0.0174472547
|150>      3      12.1384000000      0.0546705215
|151>      4       3.4408100000     -0.7757270308
|152>      5       1.7176100000     -0.2532901070
|153>      6       0.8148490000      1.3632693063
|154>      7       0.3660070000     -0.2566162240
|155>     d 1
|156>      1       0.1502820000      1.0000000000
|157>     d 1
|158>      1       0.0617000000      1.0000000000
|159>   end
|160>   NewAuxGTO 48
|161>     S 1
|162>      1 1310.72 1.0
|163>     S 1
|164>      1  655.36 1.0
|165>     S 1
|166>      1  327.68 1.0
|167>     S 1
|168>      1  163.84 1.0
|169>     S 1
|170>      1   81.82 1.0
|171>     S 1
|172>      1   40.96 1.0
|173>     S 1
|174>      1   20.48 1.0
|175>     S 1
|176>      1   10.24 1.0
|177>     S 1
|178>      1    5.12 1.0
|179>     S 1
|180>      1    2.56 1.0
|181>     S 1
|182>      1    1.28 1.0
|183>     S 1
|184>      1    0.64 1.0
|185>     S 1
|186>      1    0.32 1.0
|187>     S 1
|188>      1    0.16 1.0
|189>     S 1
|190>      1    0.08 1.0
|191>     S 1
|192>      1    0.04 1.0
|193>     S 1
|194>      1    0.02 1.0
|195>     S 1
|196>      1    0.01 1.0
|197>   end
|198> end
|199>
|200> * xyz 0 1
|201> 48  0.0 0.0 0.0
|202> *
|203>
|204>
|205>                          ****END OF INPUT****

CARTESIAN COORDINATES (ANGSTROEM)
---------------------------------
  Cd     0.000000    0.000000    0.000000

 Total Charge           Charge          ....    0
 Multiplicity           Mult            ....    1
 Number of Electrons    NEL             ....   20
 Basis Dimension        Dim             ....   49

ORBITAL ENERGIES
----------------

  NO   OCC          E(Eh)            E(eV)
   0   2.0000      -4.823678      -131.2590
   1   2.0000      -3.155393       -85.8626
   2   2.0000      -3.155393       -85.8626
   3   2.0000      -3.155391       -85.8626
   4   2.0000      -0.281008        -7.6466
   5   2.0000      -0.719671       -19.5832
   6   2.0000      -0.719631       -19.5821
   7   2.0000      -0.719628       -19.5821
   8   2.0000      -0.719628       -19.5821
   9   2.0000      -0.719619       -19.5818
  10   0.0000       0.021593         0.5876
  11   0.0000       0.021593         0.5876
  12   0.0000       0.021594         0.5876
  13   0.0000       0.038558         1.0492
  14   0.0000       0.069263         1.8847

CleanUpVectors: The d-vectors have cracked symmetry at i=5
CleanUpVectors: The d-vectors have cracked symmetry at i=6
CleanUpVectors: The d-vectors have cracked symmetry at i=7
CleanUpVectors: The d-vectors have cracked symmetry at i=8
CleanUpVectors: The d-vectors have cracked symmetry at i=9
--------------------------
ATOM BASIS FOR ELEMENT Cd
--------------------------
 NewGTO Cd
 S 38
    1        257.497000000000         0.000767786881
    2         21.354600000000        -0.078172306095
    3         13.480600000000         0.460800121607
    4          8.486510000000        -0.536061235626
    5          5.325510000000        -0.400711796968
    6          1.626860000000         0.855124691104
    7          0.740469000000         0.489732092592
    8          0.180933000000         0.022022888312
    9          0.085096000000        -0.008357680650
   10        257.497000000000         0.000000199374
   11         21.354600000000        -0.000019228843
   12         13.480600000000         0.000119283730
   13          8.486510000000        -0.000153444077
   14          5.325510000000        -0.000091224586
   15          1.626860000000         0.000281328527
   16          0.740469000000         0.000258345231
   17          0.180933000000        -0.000243478458
   18          0.085096000000        -0.000519619798
   19        257.497000000000        -0.000000085224
   20         21.354600000000         0.000004825228
   21         13.480600000000        -0.000043715453
   22          8.486510000000         0.000039601156
   23          5.325510000000         0.000112720440
   24          1.626860000000        -0.000363551846
   25          0.740469000000         0.000161639738
   26          0.180933000000         0.000381182408
   27          0.085096000000        -0.000286625230
   28        257.497000000000         0.000000092020
   29         21.354600000000        -0.000010994404
   30         13.480600000000         0.000060744291
   31          8.486510000000        -0.000097023924
   32          5.325510000000         0.000006747213
   33          1.626860000000         0.000217036217
   34          0.740469000000        -0.000258821077
   35          0.180933000000         0.000159035203
   36          0.085096000000        -0.000037247349
   37          0.036384000000         0.003149016767
   38          0.015600000000        -0.000743388820
 S 38
    1        257.497000000000        -0.000000108826
    2         21.354600000000         0.000011080131
    3         13.480600000000        -0.000065313742
    4          8.486510000000         0.000075981241
    5          5.325510000000         0.000056796831
    6          1.626860000000        -0.000121205249
    7          0.740469000000        -0.000069414555
    8          0.180933000000        -0.000003121521
    9          0.085096000000         0.000001184616
   10        257.497000000000         0.000231058861
   11         21.354600000000        -0.022284676913
   12         13.480600000000         0.138240215962
   13          8.486510000000        -0.177829301057
   14          5.325510000000        -0.105721932071
   15          1.626860000000         0.326037056144
   16          0.740469000000         0.299401270838
   17          0.180933000000        -0.282171881773
   18          0.085096000000        -0.602197406538
   19        257.497000000000         0.000000090249
   20         21.354600000000        -0.000005109729
   21         13.480600000000         0.000046292967
   22          8.486510000000        -0.000041936086
   23          5.325510000000        -0.000119366568
   24          1.626860000000         0.000384987284
   25          0.740469000000        -0.000171170205
   26          0.180933000000        -0.000403657365
   27          0.085096000000         0.000303524986
   28        257.497000000000        -0.000000153084
   29         21.354600000000         0.000018290194
   30         13.480600000000        -0.000101053670
   31          8.486510000000         0.000161408150
   32          5.325510000000        -0.000011224604
   33          1.626860000000        -0.000361059550
   34          0.740469000000         0.000430572478
   35          0.180933000000        -0.000264569572
   36          0.085096000000         0.000061964363
   37          0.036384000000        -0.295197481970
   38          0.015600000000        -0.001432469336
 D 58
    1        257.497000000000        -0.000000002572
    2         21.354600000000         0.000003157268
    3         13.480600000000        -0.000029481751
    4          8.486510000000         0.000054479761
    5          5.325510000000         0.000064896435
    6          1.626860000000        -0.000453345367
    7          0.740469000000        -0.000570429004
    8          0.180933000000        -0.000104979961
    9          0.085096000000         0.000084708413
   10        257.497000000000         0.000000000742
   11         21.354600000000        -0.000000862716
   12         13.480600000000         0.000008477697
   13          8.486510000000        -0.000017323152
   14          5.325510000000        -0.000016411815
   15          1.626860000000         0.000165679775
   16          0.740469000000         0.000334271594
   17          0.180933000000        -0.001289284211
   18          0.085096000000        -0.005850358081
   19         21.354600000000        -0.000000000625
   20         13.480600000000         0.000000008967
   21          8.486510000000        -0.000000012903
   22          5.325510000000        -0.000000058528
   23          1.626860000000         0.000000617928
   24          0.740469000000        -0.000000603619
   25          0.180933000000        -0.000005825546
   26          0.085096000000         0.000009313798
   27         21.354600000000         0.000000001485
   28         13.480600000000        -0.000000012997
   29          8.486510000000         0.000000032975
   30          5.325510000000        -0.000000003654
   31          1.626860000000        -0.000000384785
   32          0.740469000000         0.000001008159
   33          0.180933000000        -0.000002535197
   34          0.036384000000        -0.006773552229
   35          0.015600000000        -0.000092109794
   36         86.066600000000         0.000443118461
   37         22.638600000000         0.005007338785
   38         12.138400000000        -0.016081299422
   39          3.440810000000         0.177199375499
   40          1.717610000000         0.366754054325
   41          0.814849000000         0.377326881053
   42          0.366007000000         0.233982556891
   43         86.066600000000        -0.000000245353
   44         22.638600000000        -0.000002831448
   45         12.138400000000         0.000009252887
   46          3.440810000000        -0.000129476847
   47          1.717610000000        -0.000211199698
   48          0.814849000000         0.000067668711
   49          0.366007000000         0.000234396257
   50         86.066600000000         0.000000063187
   51         22.638600000000         0.000002844770
   52         12.138400000000        -0.000008914014
   53          3.440810000000         0.000126482089
   54          1.717610000000         0.000041298886
   55          0.814849000000        -0.000222280704
   56          0.366007000000         0.000041841208
   57          0.150282000000         0.063734035535
   58          0.061700000000         0.001035385943
 P 34
    1        243.165000000000        -0.000112998690
    2         13.958800000000        -0.069671203374
    3          8.310010000000         0.253672099577
    4          2.202000000000        -0.482486483319
    5          1.100720000000        -0.484544459791
    6          0.535975000000        -0.179637946031
    7          0.213654000000        -0.015228825841
    8          0.085469000000         0.000187997860
    9        243.165000000000        -0.000000011582
   10         13.958800000000        -0.000005166975
   11          8.310010000000         0.000019927302
   12          2.202000000000        -0.000045863596
   13          1.100720000000        -0.000048889220
   14          0.535975000000        -0.000008562586
   15          0.213654000000         0.000100979667
   16          0.085469000000         0.000174256059
   17        243.165000000000         0.000000011728
   18         13.958800000000         0.000006354386
   19          8.310010000000        -0.000024133671
   20          2.202000000000         0.000058690020
   21          1.100720000000         0.000061976798
   22          0.535975000000        -0.000034972579
   23          0.213654000000        -0.000131959254
   24          0.085469000000        -0.000061845488
   25        243.165000000000        -0.000000002636
   26         13.958800000000        -0.000002203689
   27          8.310010000000         0.000008312473
   28          2.202000000000        -0.000027704230
   29          1.100720000000        -0.000008459398
   30          0.535975000000         0.000045806424
   31          0.213654000000        -0.000006344495
   32          0.085469000000        -0.000022385175
   33          0.033823000000        -0.000370553948
   34          0.013400000000         0.000099939361
 D 23
    1         86.066600000000         0.000443124127
    2         22.638600000000         0.005007402810
    3         12.138400000000        -0.016081505042
    4          3.440810000000         0.177201641219
    5          1.717610000000         0.366758743742
    6          0.814849000000         0.377331705658
    7          0.366007000000         0.233985548656
    8         86.066600000000        -0.000000245249
    9         22.638600000000        -0.000002830240
   10         12.138400000000         0.000009248936
   11          3.440810000000        -0.000129421571
   12          1.717610000000        -0.000211109532
   13          0.814849000000         0.000067639822
   14          0.366007000000         0.000234296188
   15         86.066600000000         0.000000063210
   16         22.638600000000         0.000002845804
   17         12.138400000000        -0.000008917254
   18          3.440810000000         0.000126528057
   19          1.717610000000         0.000041313895
   20          0.814849000000        -0.000222361488
   21          0.366007000000         0.000041856415
   22          0.150282000000         0.063730177033
   23          0.061700000000         0.001038699757
 P 33
    1        243.165000000000        -0.000000375270
    2         13.958800000000        -0.000231378832
    3          8.310010000000         0.000842447829
    4          2.202000000000        -0.001602342910
    5          1.100720000000        -0.001609177472
    6          0.535975000000        -0.000596579592
    7          0.213654000000        -0.000050575098
    8        243.165000000000        -0.000021890492
    9         13.958800000000        -0.009766127596
   10          8.310010000000         0.037664700769
   11          2.202000000000        -0.086687028710
   12          1.100720000000        -0.092405777722
   13          0.535975000000        -0.016184189776
   14          0.213654000000         0.190862211901
   15          0.085469000000         0.329362313341
   16        243.165000000000         0.000014342644
   17         13.958800000000         0.007771359977
   18          8.310010000000        -0.029515273451
   19          2.202000000000         0.071777392432
   20          1.100720000000         0.075797093827
   21          0.535975000000        -0.042771165171
   22          0.213654000000        -0.161385038461
   23          0.085469000000        -0.075636503260
   24        243.165000000000        -0.000002459319
   25         13.958800000000        -0.002056219899
   26          8.310010000000         0.007756207645
   27          2.202000000000        -0.025850279316
   28          1.100720000000        -0.007893300411
   29          0.535975000000         0.042741086012
   30          0.213654000000        -0.005919925266
   31          0.085469000000        -0.020887172332
   32          0.033823000000        -0.211276675770
   33          0.013400000000         1.059974275429
 P 34
    1        243.165000000000        -0.000011135510
    2         13.958800000000        -0.006865781869
    3          8.310010000000         0.024998237687
    4          2.202000000000        -0.047546859947
    5          1.100720000000        -0.047749664217
    6          0.535975000000        -0.017702506819
    7          0.213654000000        -0.001500731885
    8          0.085469000000         0.000018526339
    9        243.165000000000         0.000019850095
   10         13.958800000000         0.008855833979
   11          8.310010000000        -0.034154001533
   12          2.202000000000         0.078606994108
   13          1.100720000000         0.083792702704
   14          0.535975000000         0.014675673274
   15          0.213654000000        -0.173072084598
   16          0.085469000000        -0.298662692789
   17        243.165000000000        -0.000029347237
   18         13.958800000000        -0.015901387776
   19          8.310010000000         0.060392751058
   20          2.202000000000        -0.146867492179
   21          1.100720000000        -0.155092414306
   22          0.535975000000         0.087516327264
   23          0.213654000000         0.330218402633
   24          0.085469000000         0.154763821514
   25        243.165000000000         0.000005656185
   26         13.958800000000         0.004729097703
   27          8.310010000000        -0.017838492751
   28          2.202000000000         0.059453026694
   29          1.100720000000         0.018153792240
   30          0.535975000000        -0.098300172951
   31          0.213654000000         0.013615229087
   32          0.085469000000         0.048038382835
   33          0.033823000000         1.573434110681
   34          0.013400000000        -1.254278582707
 P 34
    1        243.165000000000         0.000026862049
    2         13.958800000000         0.016562238997
    3          8.310010000000        -0.060302933445
    4          2.202000000000         0.114696690493
    5          1.100720000000         0.115185912676
    6          0.535975000000         0.042703533900
    7          0.213654000000         0.003620196595
    8          0.085469000000        -0.000044690853
    9        243.165000000000        -0.000203615890
   10         13.958800000000        -0.090840296384
   11          8.310010000000         0.350340761727
   12          2.202000000000        -0.806325260782
   13          1.100720000000        -0.859518591515
   14          0.535975000000        -0.150538335853
   15          0.213654000000         1.775317773316
   16          0.085469000000         3.063585834572
   17        243.165000000000         0.000159953715
   18         13.958800000000         0.086668670390
   19          8.310010000000        -0.329163687424
   20          2.202000000000         0.800484237624
   21          1.100720000000         0.845313222041
   22          0.535975000000        -0.476997594704
   23          0.213654000000        -1.799817116497
   24          0.085469000000        -0.843522265123
   25        243.165000000000        -0.000027021603
   26         13.958800000000        -0.022592576124
   27          8.310010000000         0.085220803354
   28          2.202000000000        -0.284028183742
   29          1.100720000000        -0.086727100785
   30          0.535975000000         0.469614772154
   31          0.213654000000        -0.065044775747
   32          0.085469000000        -0.229496383706
   33          0.033823000000        -2.327496535581
   34          0.013400000000         0.910428144642
 P 34
    1        243.165000000000        -0.000029880923
    2         13.958800000000        -0.018423575461
    3          8.310010000000         0.067080039422
    4          2.202000000000        -0.127586803499
    5          1.100720000000        -0.128131006598
    6          0.535975000000        -0.047502742799
    7          0.213654000000        -0.004027050036
    8          0.085469000000         0.000049713405
    9        243.165000000000         0.000408725267
   10         13.958800000000         0.182346890169
   11          8.310010000000        -0.703251210570
   12          2.202000000000         1.618564773803
   13          1.100720000000         1.725341598879
   14          0.535975000000         0.302180843598
   15          0.213654000000        -3.563657186441
   16          0.085469000000        -6.149642525832
   17        243.165000000000        -0.000498418580
   18         13.958800000000        -0.270061095967
   19          8.310010000000         1.025679819229
   20          2.202000000000        -2.494322914436
   21          1.100720000000        -2.634010815593
   22          0.535975000000         1.486332865382
   23          0.213654000000         5.608261680202
   24          0.085469000000         2.628430162448
   25        243.165000000000         0.000097061234
   26         13.958800000000         0.081152230738
   27          8.310010000000        -0.306111983839
   28          2.202000000000         1.020225430527
   29          1.100720000000         0.311522584028
   30          0.535975000000        -1.686849969571
   31          0.213654000000         0.233639962999
   32          0.085469000000         0.824347935427
   33          0.033823000000         1.560222072458
   34          0.013400000000        -0.505826907736
 P 34
    1        243.165000000000        -0.000024738546
    2         13.958800000000        -0.015252957842
    3          8.310010000000         0.055535854891
    4          2.202000000000        -0.105629666680
    5          1.100720000000        -0.106080214781
    6          0.535975000000        -0.039327726306
    7          0.213654000000        -0.003334012150
    8          0.085469000000         0.000041157943
    9        243.165000000000         0.000419341188
   10         13.958800000000         0.187083030574
   11          8.310010000000        -0.721516926372
   12          2.202000000000         1.660604152791
   13          1.100720000000         1.770154318477
   14          0.535975000000         0.310029460603
   15          0.213654000000        -3.656216926694
   16          0.085469000000        -6.309368696185
   17        243.165000000000        -0.000500424930
   18         13.958800000000        -0.271148208483
   19          8.310010000000         1.029808623363
   20          2.202000000000        -2.504363641149
   21          1.100720000000        -2.644613846421
   22          0.535975000000         1.492315996924
   23          0.213654000000         5.630837354963
   24          0.085469000000         2.639010728737
   25        243.165000000000         0.000233875754
   26         13.958800000000         0.195541909982
   27          8.310010000000        -0.737597986449
   28          2.202000000000         2.458303702596
   29          1.100720000000         0.750635201638
   30          0.535975000000        -4.064581612888
   31          0.213654000000         0.562971642275
   32          0.085469000000         1.986323337225
   33          0.033823000000         0.847534408085
   34          0.013400000000        -0.273011909777
 D 23
    1         86.066600000000         0.000008616075
    2         22.638600000000         0.000097363596
    3         12.138400000000        -0.000312687680
    4          3.440810000000         0.003445496541
    5          1.717610000000         0.007131231824
    6          0.814849000000         0.007336811769
    7          0.366007000000         0.004549598938
    8         86.066600000000         0.000077342552
    9         22.638600000000         0.000892555060
   10         12.138400000000        -0.002916779529
   11          3.440810000000         0.040814875248
   12          1.717610000000         0.066576299225
   13          0.814849000000        -0.021331149635
   14          0.366007000000        -0.073888530616
   15         86.066600000000        -0.000018503950
   16         22.638600000000        -0.000833074961
   17         12.138400000000         0.002610418850
   18          3.440810000000        -0.037039567365
   19          1.717610000000        -0.012094146019
   20          0.814849000000         0.065093651893
   21          0.366007000000        -0.012252962109
   22          0.150282000000         0.372040696617
   23          0.061700000000        -1.218632161045
 D 23
    1         86.066600000000        -0.000302668178
    2         22.638600000000        -0.003420218840
    3         12.138400000000         0.010984190530
    4          3.440810000000        -0.121034479312
    5          1.717610000000        -0.250508140199
    6          0.814849000000        -0.257729816767
    7          0.366007000000        -0.159819733346
    8         86.066600000000         0.000256920897
    9         22.638600000000         0.002964940257
   10         12.138400000000        -0.009689124440
   11          3.440810000000         0.135581178249
   12          1.717610000000         0.221156944314
   13          0.814849000000        -0.070859028317
   14          0.366007000000        -0.245447131203
   15         86.066600000000        -0.000061601267
   16         22.638600000000        -0.002773379412
   17         12.138400000000         0.008690312681
   18          3.440810000000        -0.123307959538
   19          1.717610000000        -0.040262469948
   20          0.814849000000         0.216702460771
   21          0.366007000000        -0.040791182606
   22          0.150282000000         1.784404548843
   23          0.061700000000        -0.950916953567
 D 23
    1         86.066600000000        -0.000479026001
    2         22.638600000000        -0.005413102108
    3         12.138400000000         0.017384427048
    4          3.440810000000        -0.191558501300
    5          1.717610000000        -0.396473502202
    6          0.814849000000        -0.407903084485
    7          0.366007000000        -0.252943035506
    8         86.066600000000         0.001516824193
    9         22.638600000000         0.017504582780
   10         12.138400000000        -0.057203203492
   11          3.440810000000         0.800451865045
   12          1.717610000000         1.305678935900
   13          0.814849000000        -0.418341558202
   14          0.366007000000        -1.449084721637
   15         86.066600000000        -0.000327008216
   16         22.638600000000        -0.014722389643
   17         12.138400000000         0.046132227296
   18          3.440810000000        -0.654576080906
   19          1.717610000000        -0.213731943054
   20          0.814849000000         1.150357592693
   21          0.366007000000        -0.216538596096
   22          0.150282000000         1.466698643277
   23          0.061700000000        -0.523517291410
 D 23
    1         86.066600000000         0.000507860018
    2         22.638600000000         0.005738933017
    3         12.138400000000        -0.018430848036
    4          3.440810000000         0.203088984052
    5          1.717610000000         0.420338435618
    6          0.814849000000         0.432455998859
    7          0.366007000000         0.268168438128
    8         86.066600000000        -0.000992509735
    9         22.638600000000        -0.011453844751
   10         12.138400000000         0.037430004489
   11          3.440810000000        -0.523762920134
   12          1.717610000000        -0.854350201540
   13          0.814849000000         0.273735131000
   14          0.366007000000         0.948185491807
   15         86.066600000000         0.000710731822
   16         22.638600000000         0.031998189383
   17         12.138400000000        -0.100265499111
   18          3.440810000000         1.422680007129
   19          1.717610000000         0.464532956729
   20          0.814849000000        -2.500229989930
   21          0.366007000000         0.470633040869
   22          0.150282000000        -0.873494621327
   23          0.061700000000         0.293021594801
 end
  // -----------------------------------------------
  // The basis set
  // -----------------------------------------------
  BAS[ATNO] = new BFNGauss[NSH];
  // Basis function   1 L = s
  InitBFNGauss(BAS[ATNO][  0]);
  BAS[ATNO][  0].l  = 0;
  BAS[ATNO][  0].ng = 38;
  BAS[ATNO][  0].a[  0] =       257.497000000000;     BAS[ATNO][  0].d[  0] =         0.000767786881;
  BAS[ATNO][  0].a[  1] =        21.354600000000;     BAS[ATNO][  0].d[  1] =        -0.078172306095;
  BAS[ATNO][  0].a[  2] =        13.480600000000;     BAS[ATNO][  0].d[  2] =         0.460800121607;
  BAS[ATNO][  0].a[  3] =         8.486510000000;     BAS[ATNO][  0].d[  3] =        -0.536061235626;
  BAS[ATNO][  0].a[  4] =         5.325510000000;     BAS[ATNO][  0].d[  4] =        -0.400711796968;
  BAS[ATNO][  0].a[  5] =         1.626860000000;     BAS[ATNO][  0].d[  5] =         0.855124691104;
  BAS[ATNO][  0].a[  6] =         0.740469000000;     BAS[ATNO][  0].d[  6] =         0.489732092592;
  BAS[ATNO][  0].a[  7] =         0.180933000000;     BAS[ATNO][  0].d[  7] =         0.022022888312;
  BAS[ATNO][  0].a[  8] =         0.085096000000;     BAS[ATNO][  0].d[  8] =        -0.008357680650;
  BAS[ATNO][  0].a[  9] =       257.497000000000;     BAS[ATNO][  0].d[  9] =         0.000000199374;
  BAS[ATNO][  0].a[ 10] =        21.354600000000;     BAS[ATNO][  0].d[ 10] =        -0.000019228843;
  BAS[ATNO][  0].a[ 11] =        13.480600000000;     BAS[ATNO][  0].d[ 11] =         0.000119283730;
  BAS[ATNO][  0].a[ 12] =         8.486510000000;     BAS[ATNO][  0].d[ 12] =        -0.000153444077;
  BAS[ATNO][  0].a[ 13] =         5.325510000000;     BAS[ATNO][  0].d[ 13] =        -0.000091224586;
  BAS[ATNO][  0].a[ 14] =         1.626860000000;     BAS[ATNO][  0].d[ 14] =         0.000281328527;
  BAS[ATNO][  0].a[ 15] =         0.740469000000;     BAS[ATNO][  0].d[ 15] =         0.000258345231;
  BAS[ATNO][  0].a[ 16] =         0.180933000000;     BAS[ATNO][  0].d[ 16] =        -0.000243478458;
  BAS[ATNO][  0].a[ 17] =         0.085096000000;     BAS[ATNO][  0].d[ 17] =        -0.000519619798;
  BAS[ATNO][  0].a[ 18] =       257.497000000000;     BAS[ATNO][  0].d[ 18] =        -0.000000085224;
  BAS[ATNO][  0].a[ 19] =        21.354600000000;     BAS[ATNO][  0].d[ 19] =         0.000004825228;
  BAS[ATNO][  0].a[ 20] =        13.480600000000;     BAS[ATNO][  0].d[ 20] =        -0.000043715453;
  BAS[ATNO][  0].a[ 21] =         8.486510000000;     BAS[ATNO][  0].d[ 21] =         0.000039601156;
  BAS[ATNO][  0].a[ 22] =         5.325510000000;     BAS[ATNO][  0].d[ 22] =         0.000112720440;
  BAS[ATNO][  0].a[ 23] =         1.626860000000;     BAS[ATNO][  0].d[ 23] =        -0.000363551846;
  BAS[ATNO][  0].a[ 24] =         0.740469000000;     BAS[ATNO][  0].d[ 24] =         0.000161639738;
  BAS[ATNO][  0].a[ 25] =         0.180933000000;     BAS[ATNO][  0].d[ 25] =         0.000381182408;
  BAS[ATNO][  0].a[ 26] =         0.085096000000;     BAS[ATNO][  0].d[ 26] =        -0.000286625230;
  BAS[ATNO][  0].a[ 27] =       257.497000000000;     BAS[ATNO][  0].d[ 27] =         0.000000092020;
  BAS[ATNO][  0].a[ 28] =        21.354600000000;     BAS[ATNO][  0].d[ 28] =        -0.000010994404;
  BAS[ATNO][  0].a[ 29] =        13.480600000000;     BAS[ATNO][  0].d[ 29] =         0.000060744291;
  BAS[ATNO][  0].a[ 30] =         8.486510000000;     BAS[ATNO][  0].d[ 30] =        -0.000097023924;
  BAS[ATNO][  0].a[ 31] =         5.325510000000;     BAS[ATNO][  0].d[ 31] =         0.000006747213;
  BAS[ATNO][  0].a[ 32] =         1.626860000000;     BAS[ATNO][  0].d[ 32] =         0.000217036217;
  BAS[ATNO][  0].a[ 33] =         0.740469000000;     BAS[ATNO][  0].d[ 33] =        -0.000258821077;
  BAS[ATNO][  0].a[ 34] =         0.180933000000;     BAS[ATNO][  0].d[ 34] =         0.000159035203;
  BAS[ATNO][  0].a[ 35] =         0.085096000000;     BAS[ATNO][  0].d[ 35] =        -0.000037247349;
  BAS[ATNO][  0].a[ 36] =         0.036384000000;     BAS[ATNO][  0].d[ 36] =         0.003149016767;
  BAS[ATNO][  0].a[ 37] =         0.015600000000;     BAS[ATNO][  0].d[ 37] =        -0.000743388820;

FINAL SINGLE POINT ENERGY      -166.838764424982

DIPOLE MOMENT
-------------
                                X             Y             Z
Electronic contribution:      0.00000       0.00000      -0.00000
Nuclear contribution   :      0.00000       0.00000       0.00000
                        -----------------------------------------
Total Dipole Moment    :      0.00000       0.00000      -0.00000
                        -----------------------------------------
Magnitude (a.u.)       :      0.00000
Magnitude (Debye)      :      0.00000

Rotational constants in cm-1:     0.000000     0.000000     0.000000
Rotational constants in MHz :     0.000000     0.000000     0.000000

                             ****ORCA TERMINATED NORMALLY****
TOTAL RUN TIME: 0 days 0 hours 0 minutes 5 seconds 592 msec
