                         Program Version 4.2.0 -  RELEASE  -
|  1> # input to generate an atomic fitting density for In
|  2> # this file is use internally by ORCA
|  3> #
|  4> # atomic ground state (S=2): 1s2 2s2 2p6 3s2 3p6 4s2 3d10 4p6 5s2 4d10 5p1
|  5> #
|  6> ! RHF AllowRHF def2-SVP def2/J  NoMulliken NoLoewdin NoMayer NoPrintMOs
|  7>
|  8> %output print[p_atomdensfit] 2 end
|  9>
| 10> %scf
| 11>   guess hcore
| 12>   maxiter 1000
| 13>   maxdisk 500000
| 14>   SCFMode Conventional
| 15>   lshift 1.000000
| 16>   hftyp rohf
| 17>   rohf_case sahf
| 18>   rohf_numop   2
| 19>   rohf_norb[1] 3
| 20>   rohf_nel[1]  1
| 21> end
| 22>
| 23> %basis
| 24>   NewECP 49
| 25>     N_core 28
| 26>     lmax g
| 27>     s 2
| 28>       1      15.3928220000    281.1223500000  2
| 29>       2       8.0558640000     61.9014700000  2
| 30>     p 4
| 31>       1      13.9286720000     67.4621540000  2
| 32>       2      13.3472340000    134.9492500000  2
| 33>       3       7.6141320000     14.7461400000  2
| 34>       4       7.3183650000     29.6392620000  2
| 35>     d 4
| 36>       1      14.0347150000     35.4932540000  2
| 37>       2      14.5116160000     53.1787730000  2
| 38>       3       5.5505500000      9.1772810000  2
| 39>       4       5.0594150000     12.3924100000  2
| 40>     f 2
| 41>       1      12.5390560000    -13.7280780000  2
| 42>       2      12.5525610000    -18.2068660000  2
| 43>     g 1
| 44>       1       1.0000000000      0.0000000000  2
| 45>   end
| 46>   NewGTO 49
| 47>     s 9
| 48>      1    2378.0400000000      0.0000929068
| 49>      2     360.9980000000      0.0004837213
| 50>      3      45.6335000000      0.0126999560
| 51>      4      28.5149000000     -0.0892935357
| 52>      5      17.8220000000      0.2547423735
| 53>      6       6.6299000000     -0.7261444203
| 54>      7       1.7095400000      0.8680787483
| 55>      8       0.7984450000      0.4787386546
| 56>      9       0.0435410000      0.0017884559
| 57>     s 9
| 58>      1    2378.0400000000      0.0000490879
| 59>      2     360.9980000000      0.0003488745
| 60>      3      45.6335000000      0.0032170082
| 61>      4      28.5149000000     -0.0353730653
| 62>      5      17.8220000000      0.1263065798
| 63>      6       6.6299000000     -0.4295012767
| 64>      7       1.7095400000      0.6894039840
| 65>      8       0.7984450000      0.5757533074
| 66>      9       0.0435410000     -0.3539357698
| 67>     s 1
| 68>      1       0.2047370000      1.0000000000
| 69>     s 1
| 70>      1       0.0966770000      1.0000000000
| 71>     s 1
| 72>      1       0.0518000000      1.0000000000
| 73>     s 1
| 74>      1       0.0180000000      1.0000000000
| 75>     p 9
| 76>      1     266.9020000000      0.0001080000
| 77>      2      14.7312000000      0.0736839712
| 78>      3       8.8277900000     -0.2642978968
| 79>      4       2.3595300000      0.4947508068
| 80>      5       1.1759100000      0.4936838072
| 81>      6       0.5675680000      0.1638509360
| 82>      7       0.2129400000      0.0100829961
| 83>      8       0.0828070000     -0.0002199999
| 84>      9       0.0320770000      0.0001979999
| 85>     p 9
| 86>      1     266.9020000000     -0.0000320000
| 87>      2      14.7312000000     -0.0152100036
| 88>      3       8.8277900000      0.0579220139
| 89>      4       2.3595300000     -0.1300470311
| 90>      5       1.1759100000     -0.1371410328
| 91>      6       0.5675680000     -0.0287310069
| 92>      7       0.2129400000      0.3016610722
| 93>      8       0.0828070000      0.5566391332
| 94>      9       0.0320770000      0.2912400697
| 95>     p 1
| 96>      1       0.2640000000      1.0000000000
| 97>     p 1
| 98>      1       0.0416000000      1.0000000000
| 99>     p 1
|100>      1       0.0124000000      1.0000000000
|101>   end
|102>   NewAuxGTO 49
|103>     S 1
|104>      1 1310.72 1.0
|105>     S 1
|106>      1  655.36 1.0
|107>     S 1
|108>      1  327.68 1.0
|109>     S 1
|110>      1  163.84 1.0
|111>     S 1
|112>      1   81.82 1.0
|113>     S 1
|114>      1   40.96 1.0
|115>     S 1
|116>      1   20.48 1.0
|117>     S 1
|118>      1   10.24 1.0
|119>     S 1
|120>      1    5.12 1.0
|121>     S 1
|122>      1    2.56 1.0
|123>     S 1
|124>      1    1.28 1.0
|125>     S 1
|126>      1    0.64 1.0
|127>     S 1
|128>      1    0.32 1.0
|129>     S 1
|130>      1    0.16 1.0
|131>     S 1
|132>      1    0.08 1.0
|133>     S 1
|134>      1    0.04 1.0
|135>     S 1
|136>      1    0.02 1.0
|137>     S 1
|138>      1    0.01 1.0
|139>   end
|140> end
|141>
|142> * xyz 0 2
|143> 49  0.0 0.0 0.0
|144> *
|145>
|146>
|147>                          ****END OF INPUT****

CARTESIAN COORDINATES (ANGSTROEM)
---------------------------------
  In     0.000000    0.000000    0.000000

 Total Charge           Charge          ....    0
 Multiplicity           Mult            ....    2
 Number of Electrons    NEL             ....   21
 Basis Dimension        Dim             ....   21

ORBITAL ENERGIES
----------------

  NO   OCC          E(Eh)            E(eV)
   0   2.0000      -9.579137      -260.6616
   1   2.0000      -7.520615      -204.6463
   2   2.0000      -7.520615      -204.6463
   3   2.0000      -7.514850      -204.4895
   4   2.0000      -2.191092       -59.6226
   5   2.0000      -1.458372       -39.6843
   6   2.0000      -1.458372       -39.6843
   7   2.0000      -1.439354       -39.1668
   8   2.0000      -0.355106        -9.6629
   9   2.0000      -0.180161        -4.9024
  10   0.3333      -0.199689        -5.4338
  11   0.3333      -0.199689        -5.4338
  12   0.3333      -0.073033        -1.9873
  13   0.0000      -0.055042        -1.4978
  14   0.0000      -0.055042        -1.4978
  15   0.0000      -0.045479        -1.2376
  16   0.0000       0.104977         2.8566
  17   0.0000       0.235606         6.4112

CleanUpVectors: The p-vectors have cracked symmetry
CleanUpVectors: The p-vectors have cracked symmetry
CleanUpVectors: The p-vectors have cracked symmetry
CleanUpVectors: The p-vectors have cracked symmetry
CleanUpVectors: The p-vectors have cracked symmetry
CleanUpVectors: The p-vectors have cracked symmetry
CleanUpVectors: The p-vectors have cracked symmetry
CleanUpVectors: The p-vectors have cracked symmetry
CleanUpVectors: The p-vectors have cracked symmetry
CleanUpVectors: The p-vectors have cracked symmetry
CleanUpVectors: The p-vectors have cracked symmetry
CleanUpVectors: The p-vectors have cracked symmetry
CleanUpVectors: The p-vectors have cracked symmetry
CleanUpVectors: The p-vectors have cracked symmetry
--------------------------
ATOM BASIS FOR ELEMENT In
--------------------------
 NewGTO In
 S 22
    1       2378.040000000000        -0.000087833339
    2        360.998000000000        -0.000457306214
    3         45.633500000000        -0.012006435921
    4         28.514900000000         0.084417388104
    5         17.822000000000        -0.240831384286
    6          6.629900000000         0.686491075393
    7          1.709540000000        -0.820674643757
    8          0.798445000000        -0.452595660919
    9          0.043541000000        -0.001690791776
   10       2378.040000000000        -0.000007495302
   11        360.998000000000        -0.000053270146
   12         45.633500000000        -0.000491209584
   13         28.514900000000         0.005401163939
   14         17.822000000000        -0.019285932342
   15          6.629900000000         0.065581164309
   16          1.709540000000        -0.105266080458
   17          0.798445000000        -0.087912596079
   18          0.043541000000         0.054042958969
   19          0.204737000000         0.320611831737
   20          0.096677000000        -0.353896722369
   21          0.051800000000         0.141390631710
   22          0.018000000000        -0.040014594244
 P 43
    1        266.902000000000         0.000001905695
    2         14.731200000000         0.001300177394
    3          8.827790000000        -0.004663621478
    4          2.359530000000         0.008730037267
    5          1.175910000000         0.008711209716
    6          0.567568000000         0.002891202516
    7          0.212940000000         0.000177917712
    8          0.082807000000        -0.000003881969
    9        266.902000000000        -0.000123993067
   10         14.731200000000        -0.084595384749
   11          8.827790000000         0.303436173484
   12          2.359530000000        -0.568015460816
   13          1.175910000000        -0.566790455700
   14          0.567568000000        -0.188114629907
   15          0.212940000000        -0.011576125996
   16          0.082807000000         0.000252578354
   17          0.032077000000        -0.000227320507
   18        266.902000000000         0.000007882222
   19         14.731200000000         0.005377717030
   20          8.827790000000        -0.019289396017
   21          2.359530000000         0.036108665100
   22          1.175910000000         0.036030791692
   23          0.567568000000         0.011958421276
   24          0.212940000000         0.000735892745
   25          0.082807000000        -0.000016056371
   26          0.032077000000         0.000014450734
   27        266.902000000000        -0.000000120728
   28         14.731200000000        -0.000057383644
   29          8.827790000000         0.000218525669
   30          2.359530000000        -0.000490635815
   31          1.175910000000        -0.000517399757
   32          0.567568000000        -0.000108395100
   33          0.212940000000         0.001138093847
   34          0.082807000000         0.002100064048
   35          0.032077000000         0.001098777939
   36        266.902000000000         0.000007855120
   37         14.731200000000         0.003733637768
   38          8.827790000000        -0.014218262165
   39          2.359530000000         0.031922971207
   40          1.175910000000         0.033664353614
   41          0.567568000000         0.007052672393
   42          0.212940000000        -0.074049500713
   43          0.082807000000        -0.136639605469
 S 22
    1       2378.040000000000         0.000025174236
    2        360.998000000000         0.000131070213
    3         45.633500000000         0.003441208671
    4         28.514900000000        -0.024195177475
    5         17.822000000000         0.069025567069
    6          6.629900000000        -0.196757727020
    7          1.709540000000         0.235216572096
    8          0.798445000000         0.129720103718
    9          0.043541000000         0.000484604037
   10       2378.040000000000        -0.000061844934
   11        360.998000000000        -0.000439540504
   12         45.633500000000        -0.004053048894
   13         28.514900000000         0.044565868127
   14         17.822000000000        -0.159131314497
   15          6.629900000000         0.541120683085
   16          1.709540000000        -0.868567277866
   17          0.798445000000        -0.725380900803
   18          0.043541000000         0.445917104121
   19          0.204737000000         2.638682105035
   20          0.096677000000        -2.025554103305
   21          0.051800000000         0.610442134403
   22          0.018000000000        -0.232080387706
 P 43
    1        266.902000000000         0.000000220541
    2         14.731200000000         0.000150465972
    3          8.827790000000        -0.000539708154
    4          2.359530000000         0.001010303327
    5          1.175910000000         0.001008124466
    6          0.567568000000         0.000334590957
    7          0.212940000000         0.000020589930
    8        266.902000000000        -0.000010644958
    9         14.731200000000        -0.007262618526
   10          8.827790000000         0.026050371206
   11          2.359530000000        -0.048764830624
   12          1.175910000000        -0.048659662418
   13          0.567568000000        -0.016149873900
   14          0.212940000000        -0.000993824750
   15          0.082807000000         0.000021684164
   16          0.032077000000        -0.000019515747
   17        266.902000000000        -0.000080446363
   18         14.731200000000        -0.054885254837
   19          8.827790000000         0.196868561539
   20          2.359530000000        -0.368526881350
   21          1.175910000000        -0.367732101373
   22          0.567568000000        -0.122048258680
   23          0.212940000000        -0.007510558965
   24          0.082807000000         0.000163872147
   25          0.032077000000        -0.000147484925
   26        266.902000000000        -0.000000059319
   27         14.731200000000        -0.000028194874
   28          8.827790000000         0.000107370382
   29          2.359530000000        -0.000241068956
   30          1.175910000000        -0.000254219149
   31          0.567568000000        -0.000053258838
   32          0.212940000000         0.000559190925
   33          0.082807000000         0.001031845274
   34          0.032077000000         0.000539873451
   35        266.902000000000         0.000002863161
   36         14.731200000000         0.001360896503
   37          8.827790000000        -0.005182501480
   38          2.359530000000         0.011635799341
   39          1.175910000000         0.012270526483
   40          0.567568000000         0.002570671766
   41          0.212940000000        -0.026990756155
   42          0.082807000000        -0.049804606876
   43          0.032077000000        -0.026058349679
 S 22
    1       2378.040000000000        -0.000025495581
    2        360.998000000000        -0.000132743302
    3         45.633500000000        -0.003485135122
    4         28.514900000000         0.024504024852
    5         17.822000000000        -0.069906666839
    6          6.629900000000         0.199269306356
    7          1.709540000000        -0.238219072130
    8          0.798445000000        -0.131375959053
    9          0.043541000000        -0.000490789926
   10       2378.040000000000         0.000036328793
   11        360.998000000000         0.000258193762
   12         45.633500000000         0.002380831644
   13         28.514900000000        -0.026178768584
   14         17.822000000000         0.093476510876
   15          6.629900000000        -0.317863731457
   16          1.709540000000         0.510211574968
   17          0.798445000000         0.426101398569
   18          0.043541000000        -0.261939487932
   19          0.204737000000        -4.187695934600
   20          0.096677000000        10.033591890457
   21          0.051800000000        -8.013269626509
   22          0.018000000000         2.104518206151
 P 43
    1        266.902000000000         0.000001232381
    2         14.731200000000         0.000840803057
    3          8.827790000000        -0.003015886304
    4          2.359530000000         0.005645569641
    5          1.175910000000         0.005633394177
    6          0.567568000000         0.001869692494
    7          0.212940000000         0.000115056420
    8          0.082807000000        -0.000002510405
    9        266.902000000000        -0.000080436943
   10         14.731200000000        -0.054878827959
   11          8.827790000000         0.196845508896
   12          2.359530000000        -0.368483728098
   13          1.175910000000        -0.367689041187
   14          0.567568000000        -0.122033967241
   15          0.212940000000        -0.007509679504
   16          0.082807000000         0.000163852958
   17          0.032077000000        -0.000147467655
   18        266.902000000000         0.000010647090
   19         14.731200000000         0.007264073130
   20          8.827790000000        -0.026055588741
   21          2.359530000000         0.048774597555
   22          1.175910000000         0.048669408285
   23          0.567568000000         0.016153108499
   24          0.212940000000         0.000994023800
   25          0.082807000000        -0.000021688508
   26          0.032077000000         0.000019519656
   27        266.902000000000        -0.000000331472
   28         14.731200000000        -0.000157552808
   29          8.827790000000         0.000599985125
   30          2.359530000000        -0.001347092047
   31          1.175910000000        -0.001420575257
   32          0.567568000000        -0.000297610107
   33          0.212940000000         0.003124755927
   34          0.082807000000         0.005765945928
   35          0.032077000000         0.003016809983
   36        266.902000000000         0.000021635023
   37         14.731200000000         0.010283399135
   38          8.827790000000        -0.039160752573
   39          2.359530000000         0.087924076958
   40          1.175910000000         0.092720292190
   41          0.567568000000         0.019424874527
   42          0.212940000000        -0.203951378997
   43          0.082807000000        -0.376340632857
 P 43
    1        266.902000000000         0.000000029310
    2         14.731200000000         0.000019996944
    3          8.827790000000        -0.000071727273
    4          2.359530000000         0.000134269424
    5          1.175910000000         0.000133979853
    6          0.567568000000         0.000044467175
    7          0.212940000000         0.000002736404
    8        266.902000000000         0.000000379476
    9         14.731200000000         0.000258900681
   10          8.827790000000        -0.000928653877
   11          2.359530000000         0.001738387858
   12          1.175910000000         0.001734638781
   13          0.567568000000         0.000575717056
   14          0.212940000000         0.000035428256
   15        266.902000000000        -0.000050096377
   16         14.731200000000        -0.034178703929
   17          8.827790000000         0.122595992272
   18          2.359530000000        -0.229492806493
   19          1.175910000000        -0.228997873025
   20          0.567568000000        -0.076003132551
   21          0.212940000000        -0.004677051641
   22          0.082807000000         0.000102048130
   23          0.032077000000        -0.000091843312
   24        266.902000000000        -0.000000018879
   25         14.731200000000        -0.000008973251
   26          8.827790000000         0.000034171509
   27          2.359530000000        -0.000076722182
   28          1.175910000000        -0.000080907339
   29          0.567568000000        -0.000016950064
   30          0.212940000000         0.000177967120
   31          0.082807000000         0.000328393262
   32          0.032077000000         0.000171819175
   33        266.902000000000        -0.000000244422
   34         14.731200000000        -0.000116176790
   35          8.827790000000         0.000442418940
   36          2.359530000000        -0.000993323018
   37          1.175910000000        -0.001047508301
   38          0.567568000000        -0.000219452688
   39          0.212940000000         0.002304142463
   40          0.082807000000         0.004251711546
   41          0.032077000000         0.002224544939
   42        266.902000000000         0.000032267286
   43         14.731200000000         0.015337047803
 P 43
    1         14.731200000000        -0.000000026335
    2          8.827790000000         0.000000094460
    3          2.359530000000        -0.000000176824
    4          1.175910000000        -0.000000176443
    5        266.902000000000         0.000000337900
    6         14.731200000000         0.000230535237
    7          8.827790000000        -0.000826909533
    8          2.359530000000         0.001547928166
    9          1.175910000000         0.001544589842
   10          0.567568000000         0.000512640860
   11          0.212940000000         0.000031546697
   12        266.902000000000        -0.000007366149
   13         14.731200000000        -0.005025621352
   14          8.827790000000         0.018026459917
   15          2.359530000000        -0.033744519710
   16          1.175910000000        -0.033671744914
   17          0.567568000000        -0.011175466646
   18          0.212940000000        -0.000687711583
   19          0.082807000000         0.000015005111
   20          0.032077000000        -0.000013504600
   21         14.731200000000         0.000000002620
   22          8.827790000000        -0.000000009978
   23        266.902000000000        -0.000000048258
   24         14.731200000000        -0.000022937467
   25          8.827790000000         0.000087349372
   26          2.359530000000        -0.000196117603
   27          1.175910000000        -0.000206815722
   28          0.567568000000        -0.000043327834
   29          0.212940000000         0.000454920393
   30          0.082807000000         0.000839440407
   31          0.032077000000         0.000439204986
   32        266.902000000000         0.000001052007
   33         14.731200000000         0.000500032118
   34          8.827790000000        -0.001904198581
   35          2.359530000000         0.004275323930
   36          1.175910000000         0.004508540751
   37          0.567568000000         0.000944537990
   38          0.212940000000        -0.009917172193
   39          0.082807000000        -0.018299630420
   40          0.032077000000        -0.009574579510
   41          0.264000000000         0.000001220258
   42          0.264000000000        -0.010682213302
   43          0.264000000000         0.232870080876
 P 43
    1        266.902000000000         0.000003259691
    2         14.731200000000         0.002223953487
    3          8.827790000000        -0.007977124734
    4          2.359530000000         0.014932729113
    5          1.175910000000         0.014900524585
    6          0.567568000000         0.004945402026
    7          0.212940000000         0.000304328254
    8          0.082807000000        -0.000006640108
    9          0.032077000000         0.000005976097
   10        266.902000000000        -0.000212091645
   11         14.731200000000        -0.144701432295
   12          8.827790000000         0.519031257365
   13          2.359530000000        -0.971597339384
   14          1.175910000000        -0.969501953266
   15          0.567568000000        -0.321772357488
   16          0.212940000000        -0.019801104009
   17          0.082807000000         0.000432038340
   18          0.032077000000        -0.000388834487
   19        266.902000000000         0.000013515477
   20         14.731200000000         0.009221055566
   21          8.827790000000        -0.033075111897
   22          2.359530000000         0.061914750340
   23          1.175910000000         0.061781222486
   24          0.567568000000         0.020504847402
   25          0.212940000000         0.001261819440
   26          0.082807000000        -0.000027531514
   27          0.032077000000         0.000024778362
   28        266.902000000000        -0.000002974545
   29         14.731200000000        -0.001413838947
   30          8.827790000000         0.005384114383
   31          2.359530000000        -0.012088462459
   32          1.175910000000        -0.012747882151
   33          0.567568000000        -0.002670677642
   34          0.212940000000         0.028040767373
   35          0.082807000000         0.051742136732
   36          0.032077000000         0.027072087838
   37        266.902000000000         0.000193538661
   38         14.731200000000         0.091991366674
   39          8.827790000000        -0.350317157005
   40          2.359530000000         0.786535259126
   41          1.175910000000         0.829440371363
   42          0.567568000000         0.173767519073
   43          0.212940000000        -1.824471251548
 end
  // -----------------------------------------------
  // The basis set
  // -----------------------------------------------
  BAS[ATNO] = new BFNGauss[NSH];
  // Basis function   1 L = s
  InitBFNGauss(BAS[ATNO][  0]);
  BAS[ATNO][  0].l  = 0;
  BAS[ATNO][  0].ng = 22;
  BAS[ATNO][  0].a[  0] =      2378.040000000000;     BAS[ATNO][  0].d[  0] =         0.000087833339;
  BAS[ATNO][  0].a[  1] =       360.998000000000;     BAS[ATNO][  0].d[  1] =         0.000457306214;
  BAS[ATNO][  0].a[  2] =        45.633500000000;     BAS[ATNO][  0].d[  2] =         0.012006435921;
  BAS[ATNO][  0].a[  3] =        28.514900000000;     BAS[ATNO][  0].d[  3] =        -0.084417388104;
  BAS[ATNO][  0].a[  4] =        17.822000000000;     BAS[ATNO][  0].d[  4] =         0.240831384286;
  BAS[ATNO][  0].a[  5] =         6.629900000000;     BAS[ATNO][  0].d[  5] =        -0.686491075393;
  BAS[ATNO][  0].a[  6] =         1.709540000000;     BAS[ATNO][  0].d[  6] =         0.820674643757;
  BAS[ATNO][  0].a[  7] =         0.798445000000;     BAS[ATNO][  0].d[  7] =         0.452595660919;
  BAS[ATNO][  0].a[  8] =         0.043541000000;     BAS[ATNO][  0].d[  8] =         0.001690791776;
  BAS[ATNO][  0].a[  9] =      2378.040000000000;     BAS[ATNO][  0].d[  9] =         0.000007495302;
  BAS[ATNO][  0].a[ 10] =       360.998000000000;     BAS[ATNO][  0].d[ 10] =         0.000053270146;
  BAS[ATNO][  0].a[ 11] =        45.633500000000;     BAS[ATNO][  0].d[ 11] =         0.000491209584;
  BAS[ATNO][  0].a[ 12] =        28.514900000000;     BAS[ATNO][  0].d[ 12] =        -0.005401163939;
  BAS[ATNO][  0].a[ 13] =        17.822000000000;     BAS[ATNO][  0].d[ 13] =         0.019285932342;
  BAS[ATNO][  0].a[ 14] =         6.629900000000;     BAS[ATNO][  0].d[ 14] =        -0.065581164309;
  BAS[ATNO][  0].a[ 15] =         1.709540000000;     BAS[ATNO][  0].d[ 15] =         0.105266080458;
  BAS[ATNO][  0].a[ 16] =         0.798445000000;     BAS[ATNO][  0].d[ 16] =         0.087912596079;
  BAS[ATNO][  0].a[ 17] =         0.043541000000;     BAS[ATNO][  0].d[ 17] =        -0.054042958969;
  BAS[ATNO][  0].a[ 18] =         0.204737000000;     BAS[ATNO][  0].d[ 18] =        -0.320611831737;
  BAS[ATNO][  0].a[ 19] =         0.096677000000;     BAS[ATNO][  0].d[ 19] =         0.353896722369;
  BAS[ATNO][  0].a[ 20] =         0.051800000000;     BAS[ATNO][  0].d[ 20] =        -0.141390631710;
  BAS[ATNO][  0].a[ 21] =         0.018000000000;     BAS[ATNO][  0].d[ 21] =         0.040014594244;

FINAL SINGLE POINT ENERGY      -168.922071376236

DIPOLE MOMENT
-------------
                                X             Y             Z
Electronic contribution:      0.00000      -0.00000      -0.00000
Nuclear contribution   :      0.00000       0.00000       0.00000
                        -----------------------------------------
Total Dipole Moment    :      0.00000      -0.00000      -0.00000
                        -----------------------------------------
Magnitude (a.u.)       :      0.00000
Magnitude (Debye)      :      0.00000

Rotational constants in cm-1:     0.000000     0.000000     0.000000
Rotational constants in MHz :     0.000000     0.000000     0.000000

                             ****ORCA TERMINATED NORMALLY****
TOTAL RUN TIME: 0 days 0 hours 0 minutes 1 seconds 228 msec
