                         Program Version 4.2.0 -  RELEASE  -
|  1> #
|  2> # 49_In CCSD(T)/aug-cc-pVTZ-PP
|  3> #
|  4> ! CCSD(T) aug-cc-pVTZ-PP tightscf
|  5>
|  6> *xyz 0 2
|  7>  In 0.0 0.0 0.0
|  8> *
|  9>
| 10> %maxcore 5000
| 11>
| 12> %pal
| 13> nprocs 24
| 14> end
| 15>
| 16>
| 17>                          ****END OF INPUT****

CARTESIAN COORDINATES (ANGSTROEM)
---------------------------------
  In     0.000000    0.000000    0.000000

 Total Charge           Charge          ....    0
 Multiplicity           Mult            ....    2
 Number of Electrons    NEL             ....   21
 Basis Dimension        Dim             ....   55

ORBITAL ENERGIES
----------------
                 SPIN UP ORBITALS
  NO   OCC          E(Eh)            E(eV)
   0   1.0000      -5.373808      -146.2287
   1   1.0000      -3.627980       -98.7223
   2   1.0000      -3.627980       -98.7223
   3   1.0000      -3.623629       -98.6040
   4   1.0000      -1.015660       -27.6375
   5   1.0000      -1.015660       -27.6375
   6   1.0000      -1.008225       -27.4352
   7   1.0000      -1.008225       -27.4352
   8   1.0000      -1.005899       -27.3719
   9   1.0000      -0.424502       -11.5513
  10   1.0000      -0.201196        -5.4748
  11   0.0000       0.006489         0.1766
  12   0.0000       0.006489         0.1766
  13   0.0000       0.035124         0.9558
  14   0.0000       0.038374         1.0442
  15   0.0000       0.049240         1.3399

                 SPIN DOWN ORBITALS
  NO   OCC          E(Eh)            E(eV)
   0   1.0000      -5.373004      -146.2069
   1   1.0000      -3.629622       -98.7670
   2   1.0000      -3.629622       -98.7670
   3   1.0000      -3.617711       -98.4429
   4   1.0000      -1.016338       -27.6559
   5   1.0000      -1.016338       -27.6559
   6   1.0000      -1.005420       -27.3589
   7   1.0000      -1.005420       -27.3589
   8   1.0000      -1.001993       -27.2656
   9   1.0000      -0.369126       -10.0444
  10   0.0000       0.012042         0.3277
  11   0.0000       0.012042         0.3277
  12   0.0000       0.026340         0.7167
  13   0.0000       0.038333         1.0431
  14   0.0000       0.053252         1.4491

E(0)                                       ...   -189.210364450
E(0)                                       ...   -189.210364450
E(CORR)                                    ...     -0.109043912
E(TOT)                                     ...   -189.319408362
E(CCSD(T))                                 ...   -189.324057438

MULLIKEN ATOMIC CHARGES AND SPIN DENSITIES
------------------------------------------
   0 In:   -0.000000    1.000000
Sum of atomic charges       :   -0.0000000

LOEWDIN ATOMIC CHARGES AND SPIN DENSITIES
-----------------------------------------
   0 In:    0.000000    1.000000

FINAL SINGLE POINT ENERGY      -189.324057437522

DIPOLE MOMENT
-------------
                                X             Y             Z
Electronic contribution:     -0.00000       0.00000       0.00000
Nuclear contribution   :      0.00000       0.00000       0.00000
                        -----------------------------------------
Total Dipole Moment    :     -0.00000       0.00000       0.00000
                        -----------------------------------------
Magnitude (a.u.)       :      0.00000
Magnitude (Debye)      :      0.00000

Rotational constants in cm-1:     0.000000     0.000000     0.000000
Rotational constants in MHz :     0.000000     0.000000     0.000000

                             ****ORCA TERMINATED NORMALLY****
TOTAL RUN TIME: 0 days 0 hours 0 minutes 15 seconds 305 msec
