                         Program Version 4.2.0 -  RELEASE  -
|  1> #
|  2> # 50_Sn CCSD(T)/aug-cc-pVTZ-PP
|  3> #
|  4> ! CCSD(T) aug-cc-pVTZ-PP tightscf
|  5>
|  6> *xyz 0 3
|  7>  Sn 0.0 0.0 0.0
|  8> *
|  9>
| 10> %maxcore 5000
| 11>
| 12> %pal
| 13> nprocs 24
| 14> end
| 15>
| 16>
| 17>                          ****END OF INPUT****

CARTESIAN COORDINATES (ANGSTROEM)
---------------------------------
  Sn     0.000000    0.000000    0.000000

 Total Charge           Charge          ....    0
 Multiplicity           Mult            ....    3
 Number of Electrons    NEL             ....   22
 Basis Dimension        Dim             ....   55

ORBITAL ENERGIES
----------------
                 SPIN UP ORBITALS
  NO   OCC          E(Eh)            E(eV)
   0   1.0000      -5.859862      -159.4550
   1   1.0000      -4.048668      -110.1699
   2   1.0000      -4.044356      -110.0525
   3   1.0000      -4.044356      -110.0525
   4   1.0000      -1.315719       -35.8025
   5   1.0000      -1.312662       -35.7193
   6   1.0000      -1.312662       -35.7193
   7   1.0000      -1.303901       -35.4810
   8   1.0000      -1.303901       -35.4810
   9   1.0000      -0.573904       -15.6167
  10   1.0000      -0.266844        -7.2612
  11   1.0000      -0.266844        -7.2612
  12   0.0000      -0.018330        -0.4988
  13   0.0000       0.044666         1.2154
  14   0.0000       0.058607         1.5948
  15   0.0000       0.058607         1.5948
  16   0.0000       0.065082         1.7710

                 SPIN DOWN ORBITALS
  NO   OCC          E(Eh)            E(eV)
   0   1.0000      -5.854429      -159.3071
   1   1.0000      -4.050717      -110.2256
   2   1.0000      -4.034851      -109.7939
   3   1.0000      -4.034851      -109.7939
   4   1.0000      -1.313208       -35.7342
   5   1.0000      -1.308436       -35.6043
   6   1.0000      -1.308436       -35.6043
   7   1.0000      -1.294684       -35.2302
   8   1.0000      -1.294684       -35.2302
   9   1.0000      -0.441977       -12.0268
  10   0.0000       0.000287         0.0078
  11   0.0000       0.027233         0.7410
  12   0.0000       0.027233         0.7410
  13   0.0000       0.051464         1.4004
  14   0.0000       0.070599         1.9211

E(0)                                       ...   -213.340270851
E(0)                                       ...   -213.340270851
E(CORR)                                    ...     -0.121465780
E(TOT)                                     ...   -213.461736631
E(CCSD(T))                                 ...   -213.466264080

MULLIKEN ATOMIC CHARGES AND SPIN DENSITIES
------------------------------------------
   0 Sn:   -0.000000    2.000000
Sum of atomic charges       :   -0.0000000

LOEWDIN ATOMIC CHARGES AND SPIN DENSITIES
-----------------------------------------
   0 Sn:   -0.000000    2.000000

FINAL SINGLE POINT ENERGY      -213.466264079893

DIPOLE MOMENT
-------------
                                X             Y             Z
Electronic contribution:      0.00000      -0.00000       0.00000
Nuclear contribution   :      0.00000       0.00000       0.00000
                        -----------------------------------------
Total Dipole Moment    :      0.00000      -0.00000       0.00000
                        -----------------------------------------
Magnitude (a.u.)       :      0.00000
Magnitude (Debye)      :      0.00000

Rotational constants in cm-1:     0.000000     0.000000     0.000000
Rotational constants in MHz :     0.000000     0.000000     0.000000

                             ****ORCA TERMINATED NORMALLY****
TOTAL RUN TIME: 0 days 0 hours 0 minutes 15 seconds 104 msec
