                         Program Version 4.2.0 -  RELEASE  -
|  1> # input to generate an atomic fitting density for Sn
|  2> # this file is use internally by ORCA
|  3> #
|  4> # atomic ground state (S=3): 1s2 2s2 2p6 3s2 3p6 4s2 3d10 4p6 5s2 4d10 5p2
|  5> #
|  6> ! RHF AllowRHF def2-SVP def2/J  NoMulliken NoLoewdin NoMayer NoPrintMOs
|  7>
|  8> %output print[p_atomdensfit] 2 end
|  9>
| 10> %scf
| 11>   guess hcore
| 12>   maxiter 1000
| 13>   maxdisk 500000
| 14>   SCFMode Conventional
| 15>   lshift 1.000000
| 16>   hftyp rohf
| 17>   rohf_case sahf
| 18>   rohf_numop   2
| 19>   rohf_norb[1] 3
| 20>   rohf_nel[1]  2
| 21> end
| 22>
| 23> %basis
| 24>   NewECP 50
| 25>     N_core 28
| 26>     lmax g
| 27>     s 2
| 28>       1      17.4204140000    279.9886820000  2
| 29>       2       7.6311550000     62.3778100000  2
| 30>     p 4
| 31>       1      16.1310240000     66.1625230000  2
| 32>       2      15.6280770000    132.1743960000  2
| 33>       3       7.3256080000     16.3394170000  2
| 34>       4       6.9425190000     32.4889590000  2
| 35>     d 4
| 36>       1      15.5149760000     36.3874410000  2
| 37>       2      15.1881600000     54.5078410000  2
| 38>       3       5.4560240000      8.6968230000  2
| 39>       4       5.3631050000     12.8402080000  2
| 40>     f 2
| 41>       1      12.2823480000    -12.5763330000  2
| 42>       2      12.2721500000    -16.5959440000  2
| 43>     g 1
| 44>       1       1.0000000000      0.0000000000  2
| 45>   end
| 46>   NewGTO 50
| 47>     s 9
| 48>      1    3672.4000000000      0.0001183380
| 49>      2     558.1430000000      0.0006948565
| 50>      3     114.0890000000      0.0021543587
| 51>      4      31.4006000000     -0.0380997832
| 52>      5      19.6318000000      0.1609690301
| 53>      6       6.7720500000     -0.6592074673
| 54>      7       1.8335100000      0.8472718567
| 55>      8       0.8777150000      0.4940116461
| 56>      9       0.0517570000      0.0018934082
| 57>     s 9
| 58>      1    3672.4000000000      0.0000688395
| 59>      2     558.1430000000      0.0004914818
| 60>      3     114.0890000000      0.0007940552
| 61>      4      31.4006000000     -0.0145763563
| 62>      5      19.6318000000      0.0798825949
| 63>      6       6.7720500000     -0.3999957084
| 64>      7       1.8335100000      0.7109627788
| 65>      8       0.8777150000      0.5635630779
| 66>      9       0.0517570000     -0.2650783634
| 67>     s 1
| 68>      1       0.2373960000      1.0000000000
| 69>     s 1
| 70>      1       0.1120680000      1.0000000000
| 71>     s 1
| 72>      1       0.0638000000      1.0000000000
| 73>     s 1
| 74>      1       0.0251000000      1.0000000000
| 75>     p 9
| 76>      1     216.9700000000      0.0002260002
| 77>      2      20.9102000000      0.0229170174
| 78>      3       8.7961100000     -0.1971461497
| 79>      4       2.5673700000      0.4679173552
| 80>      5       1.3145100000      0.4960433766
| 81>      6       0.6535910000      0.1766101341
| 82>      7       0.2721500000      0.0128500098
| 83>      8       0.1107360000      0.0001190001
| 84>      9       0.0440340000      0.0001730001
| 85>     p 9
| 86>      1     216.9700000000     -0.0000810000
| 87>      2      20.9102000000     -0.0054570028
| 88>      3       8.7961100000      0.0530050273
| 89>      4       2.5673700000     -0.1546650796
| 90>      5       1.3145100000     -0.1589400818
| 91>      6       0.6535910000     -0.0497030256
| 92>      7       0.2721500000      0.3271271683
| 93>      8       0.1107360000      0.5670892917
| 94>      9       0.0440340000      0.2642971360
| 95>     p 1
| 96>      1       0.3451000000      1.0000000000
| 97>     p 1
| 98>      1       0.0568000000      1.0000000000
| 99>     p 1
|100>      1       0.0202000000      1.0000000000
|101>   end
|102>   NewAuxGTO 50
|103>     S 1
|104>      1 1310.72 1.0
|105>     S 1
|106>      1  655.36 1.0
|107>     S 1
|108>      1  327.68 1.0
|109>     S 1
|110>      1  163.84 1.0
|111>     S 1
|112>      1   81.82 1.0
|113>     S 1
|114>      1   40.96 1.0
|115>     S 1
|116>      1   20.48 1.0
|117>     S 1
|118>      1   10.24 1.0
|119>     S 1
|120>      1    5.12 1.0
|121>     S 1
|122>      1    2.56 1.0
|123>     S 1
|124>      1    1.28 1.0
|125>     S 1
|126>      1    0.64 1.0
|127>     S 1
|128>      1    0.32 1.0
|129>     S 1
|130>      1    0.16 1.0
|131>     S 1
|132>      1    0.08 1.0
|133>     S 1
|134>      1    0.04 1.0
|135>     S 1
|136>      1    0.02 1.0
|137>     S 1
|138>      1    0.01 1.0
|139>   end
|140> end
|141>
|142> * xyz 0 3
|143> 50  0.0 0.0 0.0
|144> *
|145>
|146>
|147>                          ****END OF INPUT****

CARTESIAN COORDINATES (ANGSTROEM)
---------------------------------
  Sn     0.000000    0.000000    0.000000

 Total Charge           Charge          ....    0
 Multiplicity           Mult            ....    3
 Number of Electrons    NEL             ....   22
 Basis Dimension        Dim             ....   21

ORBITAL ENERGIES
----------------

  NO   OCC          E(Eh)            E(eV)
   0   2.0000     -10.300733      -280.2972
   1   2.0000      -8.178458      -222.5471
   2   2.0000      -8.178458      -222.5471
   3   2.0000      -8.172419      -222.3828
   4   2.0000      -2.481547       -67.5263
   5   2.0000      -1.729853       -47.0717
   6   2.0000      -1.729853       -47.0717
   7   2.0000      -1.712566       -46.6013
   8   2.0000      -0.431538       -11.7427
   9   2.0000      -0.235070        -6.3966
  10   0.6667      -0.268607        -7.3092
  11   0.6667      -0.268607        -7.3092
  12   0.6667      -0.069046        -1.8788
  13   0.0000      -0.005665        -0.1542
  14   0.0000      -0.005665        -0.1542
  15   0.0000       0.005686         0.1547
  16   0.0000       0.219686         5.9780
  17   0.0000       0.469496        12.7756

CleanUpVectors: The p-vectors have cracked symmetry
CleanUpVectors: The p-vectors have cracked symmetry
CleanUpVectors: The p-vectors have cracked symmetry
CleanUpVectors: The p-vectors have cracked symmetry
CleanUpVectors: The p-vectors have cracked symmetry
CleanUpVectors: The p-vectors have cracked symmetry
CleanUpVectors: The p-vectors have cracked symmetry
CleanUpVectors: The p-vectors have cracked symmetry
CleanUpVectors: The p-vectors have cracked symmetry
CleanUpVectors: The p-vectors have cracked symmetry
CleanUpVectors: The p-vectors have cracked symmetry
CleanUpVectors: The p-vectors have cracked symmetry
CleanUpVectors: The p-vectors have cracked symmetry
CleanUpVectors: The p-vectors have cracked symmetry
--------------------------
ATOM BASIS FOR ELEMENT Sn
--------------------------
 NewGTO Sn
 S 22
    1       3672.400000000000        -0.000110136539
    2        558.143000000000        -0.000646699203
    3        114.089000000000        -0.002005050041
    4         31.400600000000         0.035459263057
    5         19.631800000000        -0.149813009497
    6          6.772050000000         0.613520839989
    7          1.833510000000        -0.788551354478
    8          0.877715000000        -0.459773978776
    9          0.051757000000        -0.001762184816
   10       3672.400000000000        -0.000012165710
   11        558.143000000000        -0.000086857474
   12        114.089000000000        -0.000140329975
   13         31.400600000000         0.002576017031
   14         19.631800000000        -0.014117308929
   15          6.772050000000         0.070689528711
   16          1.833510000000        -0.125645407461
   17          0.877715000000        -0.099596089506
   18          0.051757000000         0.046846164063
   19          0.237396000000         0.353357155907
   20          0.112068000000        -0.428909138061
   21          0.063800000000         0.215315795134
   22          0.025100000000        -0.054757350209
 P 43
    1        216.970000000000        -0.000048929472
    2         20.910200000000        -0.004961577702
    3          8.796110000000         0.042682515065
    4          2.567370000000        -0.101304994255
    5          1.314510000000        -0.107394331196
    6          0.653591000000        -0.038236428766
    7          0.272150000000        -0.002782051477
    8          0.110736000000        -0.000025763747
    9          0.044034000000        -0.000037454850
   10        216.970000000000         0.000053401012
   11         20.910200000000         0.005415003749
   12          8.796110000000        -0.046583162245
   13          2.567370000000         0.110563001650
   14          1.314510000000         0.117208827704
   15          0.653591000000         0.041730759355
   16          0.272150000000         0.003036296130
   17          0.110736000000         0.000028118231
   18          0.044034000000         0.000040877754
   19        216.970000000000        -0.000258608007
   20         20.910200000000        -0.026223535143
   21          8.796110000000         0.225590830371
   22          2.567370000000        -0.535429501743
   23          1.314510000000        -0.567613607455
   24          0.653591000000        -0.202091833212
   25          0.272150000000        -0.014704037515
   26          0.110736000000        -0.000136169697
   27          0.044034000000        -0.000197960935
   28        216.970000000000         0.000003524326
   29         20.910200000000         0.000237435255
   30          8.796110000000        -0.002306259066
   31          2.567370000000         0.006729507751
   32          1.314510000000         0.006915513930
   33          0.653591000000         0.002162588329
   34          0.272150000000        -0.014233366835
   35          0.110736000000        -0.024674165583
   36          0.044034000000        -0.011499619887
   37        216.970000000000        -0.000003846405
   38         20.910200000000        -0.000259133863
   39          8.796110000000         0.002517022254
   40          2.567370000000        -0.007344500457
   41          1.314510000000        -0.007547505270
   42          0.653591000000        -0.002360221811
   43          0.272150000000         0.015534118258
 S 22
    1       3672.400000000000         0.000035443946
    2        558.143000000000         0.000208119591
    3        114.089000000000         0.000645261651
    4         31.400600000000        -0.011411437194
    5         19.631800000000         0.048212557208
    6          6.772050000000        -0.197442189404
    7          1.833510000000         0.253770199376
    8          0.877715000000         0.147963647009
    9          0.051757000000         0.000567103194
   10       3672.400000000000        -0.000092478482
   11        558.143000000000        -0.000660253066
   12        114.089000000000        -0.001066727966
   13         31.400600000000         0.019581770765
   14         19.631800000000        -0.107313695497
   15          6.772050000000         0.537351317955
   16          1.833510000000        -0.955102212804
   17          0.877715000000        -0.757086529432
   18          0.051757000000         0.356104340479
   19          0.237396000000         2.762304206632
   20          0.112068000000        -2.348416546135
   21          0.063800000000         1.015195646491
   22          0.025100000000        -0.302203689840
 P 43
    1        216.970000000000        -0.000184178239
    2         20.910200000000        -0.018676160025
    3          8.796110000000         0.160663710110
    4          2.567370000000        -0.381327956064
    5          1.314510000000        -0.404249179510
    6          0.653591000000        -0.143927940924
    7          0.272150000000        -0.010472079990
    8          0.110736000000        -0.000096978803
    9          0.044034000000        -0.000140985954
   10        216.970000000000         0.000021721575
   11         20.910200000000         0.002202625118
   12          8.796110000000        -0.018948323579
   13          2.567370000000         0.044972978007
   14          1.314510000000         0.047676256540
   15          0.653591000000         0.016974543877
   16          0.272150000000         0.001235054015
   17          0.110736000000         0.000011437466
   18          0.044034000000         0.000016627572
   19        216.970000000000         0.000005428996
   20         20.910200000000         0.000550514513
   21          8.796110000000        -0.004735861331
   22          2.567370000000         0.011240349923
   23          1.314510000000         0.011915995566
   24          0.653591000000         0.004242543443
   25          0.272150000000         0.000308684012
   26          0.110736000000         0.000002858630
   27          0.044034000000         0.000004155823
   28        216.970000000000         0.000035117221
   29         20.910200000000         0.002365861396
   30          8.796110000000        -0.022980114262
   31          2.567370000000         0.067054416960
   32          1.314510000000         0.068907826797
   33          0.653591000000         0.021548544839
   34          0.272150000000        -0.141824654917
   35          0.110736000000        -0.245859258712
   36          0.044034000000        -0.114584949650
   37        216.970000000000        -0.000004141648
   38         20.910200000000        -0.000279024474
   39          8.796110000000         0.002710223987
   40          2.567370000000        -0.007908250028
   41          1.314510000000        -0.008126837096
   42          0.653591000000        -0.002541387847
   43          0.272150000000         0.016726486965
 S 22
    1       3672.400000000000        -0.000038202665
    2        558.143000000000        -0.000224318222
    3        114.089000000000        -0.000695484484
    4         31.400600000000         0.012299626820
    5         19.631800000000        -0.051965098841
    6          6.772050000000         0.212809763306
    7          1.833510000000        -0.273521967248
    8          0.877715000000        -0.159480143494
    9          0.051757000000        -0.000611242698
   10       3672.400000000000         0.000058029707
   11        558.143000000000         0.000414304939
   12        114.089000000000         0.000669365562
   13         31.400600000000        -0.012287446682
   14         19.631800000000         0.067338716579
   15          6.772050000000        -0.337184810716
   16          1.833510000000         0.599321055105
   17          0.877715000000         0.475067371369
   18          0.051757000000        -0.223453391901
   19          0.237396000000        -4.688112007163
   20          0.112068000000        12.140317732125
   21          0.063800000000       -10.274807133226
   22          0.025100000000         2.657181300754
 P 43
    1        216.970000000000        -0.000001416388
    2         20.910200000000        -0.000143625526
    3          8.796110000000         0.001235554304
    4          2.567370000000        -0.002932531541
    5          1.314510000000        -0.003108802936
    6          0.653591000000        -0.001106850992
    7          0.272150000000        -0.000080533578
    8        216.970000000000         0.000033594115
    9         20.910200000000         0.003406531987
   10          8.796110000000        -0.029305064151
   11          2.567370000000         0.069554227320
   12          1.314510000000         0.073735058965
   13          0.653591000000         0.026252459495
   14          0.272150000000         0.001910107614
   15          0.110736000000         0.000017688936
   16          0.044034000000         0.000025715841
   17        216.970000000000        -0.000182461924
   18         20.910200000000        -0.018502121188
   19          8.796110000000         0.159166521969
   20          2.567370000000        -0.377774448599
   21          1.314510000000        -0.400482074438
   22          0.653591000000        -0.142586709566
   23          0.272150000000        -0.010374493087
   24          0.110736000000        -0.000096075080
   25          0.044034000000        -0.000139672138
   26        216.970000000000         0.000000270062
   27         20.910200000000         0.000018194216
   28          8.796110000000        -0.000176724284
   29          2.567370000000         0.000515669490
   30          1.314510000000         0.000529922793
   31          0.653591000000         0.000165715066
   32          0.272150000000        -0.001090676063
   33          0.110736000000        -0.001890734784
   34          0.044034000000        -0.000881194189
   35        216.970000000000        -0.000006405382
   36         20.910200000000        -0.000431533169
   37          8.796110000000         0.004191573332
   38          2.567370000000        -0.012230727084
   39          1.314510000000        -0.012568789078
   40          0.653591000000        -0.003930455038
   41          0.272150000000         0.025868820082
   42          0.110736000000         0.044844734033
   43          0.044034000000         0.020900297260
 P 43
    1        216.970000000000        -0.000115931986
    2         20.910200000000        -0.011755809728
    3          8.796110000000         0.101130639476
    4          2.567370000000        -0.240028940081
    5          1.314510000000        -0.254456827891
    6          0.653591000000        -0.090596219235
    7          0.272150000000        -0.006591707271
    8          0.110736000000        -0.000061043831
    9          0.044034000000        -0.000088744369
   10        216.970000000000         0.000014805388
   11         20.910200000000         0.001501305475
   12          8.796110000000        -0.012915144616
   13          2.567370000000         0.030653504114
   14          1.314510000000         0.032496054092
   15          0.653591000000         0.011569819781
   16          0.272150000000         0.000841810683
   17          0.110736000000         0.000007795757
   18          0.044034000000         0.000011333325
   19        216.970000000000        -0.000002766549
   20         20.910200000000        -0.000280535351
   21          8.796110000000         0.002413336050
   22          2.567370000000        -0.005727942561
   23          1.314510000000        -0.006072243180
   24          0.653591000000        -0.002161947388
   25          0.272150000000        -0.000157301535
   26          0.110736000000        -0.000001456722
   27        216.970000000000         0.000063999875
   28         20.910200000000         0.004311697467
   29          8.796110000000        -0.041880433334
   30          2.567370000000         0.122204267882
   31          1.314510000000         0.125582040779
   32          0.653591000000         0.039271449449
   33          0.272150000000        -0.258470342561
   34          0.110736000000        -0.448069673485
   35          0.044034000000        -0.208826957525
   36        216.970000000000        -0.000008173266
   37         20.910200000000        -0.000550636252
   38          8.796110000000         0.005348446879
   39          2.567370000000        -0.015606405740
   40          1.314510000000        -0.016037772788
   41          0.653591000000        -0.005015259980
   42          0.272150000000         0.033008610155
   43          0.110736000000         0.057221873224
 P 43
    1        216.970000000000         0.000003044680
    2         20.910200000000         0.000308738622
    3          8.796110000000        -0.002655957781
    4          2.567370000000         0.006303794126
    5          1.314510000000         0.006682708578
    6          0.653591000000         0.002379296073
    7          0.272150000000         0.000173115648
    8          0.110736000000         0.000001603172
    9        216.970000000000         0.000002890223
   10         20.910200000000         0.000293076203
   11          8.796110000000        -0.002521220104
   12          2.567370000000         0.005984000421
   13          1.314510000000         0.006343692410
   14          0.653591000000         0.002258593543
   15          0.272150000000         0.000164333430
   16          0.110736000000         0.000001521843
   17        216.970000000000        -0.000017830166
   18         20.910200000000        -0.001808025917
   19          8.796110000000         0.015553740777
   20          2.567370000000        -0.036916091230
   21          1.314510000000        -0.039135078751
   22          0.653591000000        -0.013933562733
   23          0.272150000000        -0.001013794699
   24          0.110736000000        -0.000009388450
   25          0.044034000000        -0.000013648751
   26        216.970000000000         0.000000569025
   27         20.910200000000         0.000038335468
   28          8.796110000000        -0.000372360548
   29          2.567370000000         0.001086522859
   30          1.314510000000         0.001116554768
   31          0.653591000000         0.000349163972
   32          0.272150000000        -0.002298069784
   33          0.110736000000        -0.003983804748
   34          0.044034000000        -0.001856688533
   35        216.970000000000         0.000000540158
   36         20.910200000000         0.000036390697
   37          8.796110000000        -0.000353470566
   38          2.567370000000         0.001031403170
   39          1.314510000000         0.001059911550
   40          0.653591000000         0.000331450760
   41          0.272150000000        -0.002181487892
   42          0.110736000000        -0.003781704925
   43          0.044034000000        -0.001762498068
 P 43
    1        216.970000000000        -0.000567672536
    2         20.910200000000        -0.057563495047
    3          8.796110000000         0.495196264577
    4          2.567370000000        -1.175325649416
    5          1.314510000000        -1.245973241346
    6          0.653591000000        -0.443613424994
    7          0.272150000000        -0.032276952212
    8          0.110736000000        -0.000298907207
    9          0.044034000000        -0.000434545658
   10        216.970000000000         0.000060475768
   11         20.910200000000         0.006132402615
   12          8.796110000000        -0.052754664483
   13          2.567370000000         0.125210779499
   14          1.314510000000         0.132737068115
   15          0.653591000000         0.047259398080
   16          0.272150000000         0.003438555390
   17          0.110736000000         0.000031843434
   18          0.044034000000         0.000046293383
   19        216.970000000000         0.000052081194
   20         20.910200000000         0.005281170685
   21          8.796110000000        -0.045431848665
   22          2.567370000000         0.107830411608
   23          1.314510000000         0.114311984541
   24          0.653591000000         0.040699374029
   25          0.272150000000         0.002961253372
   26          0.110736000000         0.000027423282
   27          0.044034000000         0.000039867450
   28        216.970000000000         0.000501657913
   29         20.910200000000         0.033796896744
   30          8.796110000000        -0.328276436759
   31          2.567370000000         0.957888408108
   32          1.314510000000         0.984364811590
   33          0.653591000000         0.307826124638
   34          0.272150000000        -2.025999167376
   35          0.110736000000        -3.512158402443
   36          0.044034000000        -1.636873452788
   37        216.970000000000        -0.000053443042
   38         20.910200000000        -0.003600479397
   39          8.796110000000         0.034972221153
   40          2.567370000000        -0.102046572635
   41          1.314510000000        -0.104867179094
   42          0.653591000000        -0.032793591321
   43          0.272150000000         0.215835445383
 end
  // -----------------------------------------------
  // The basis set
  // -----------------------------------------------
  BAS[ATNO] = new BFNGauss[NSH];
  // Basis function   1 L = s
  InitBFNGauss(BAS[ATNO][  0]);
  BAS[ATNO][  0].l  = 0;
  BAS[ATNO][  0].ng = 22;
  BAS[ATNO][  0].a[  0] =      3672.400000000000;     BAS[ATNO][  0].d[  0] =         0.000110136539;
  BAS[ATNO][  0].a[  1] =       558.143000000000;     BAS[ATNO][  0].d[  1] =         0.000646699203;
  BAS[ATNO][  0].a[  2] =       114.089000000000;     BAS[ATNO][  0].d[  2] =         0.002005050041;
  BAS[ATNO][  0].a[  3] =        31.400600000000;     BAS[ATNO][  0].d[  3] =        -0.035459263057;
  BAS[ATNO][  0].a[  4] =        19.631800000000;     BAS[ATNO][  0].d[  4] =         0.149813009497;
  BAS[ATNO][  0].a[  5] =         6.772050000000;     BAS[ATNO][  0].d[  5] =        -0.613520839989;
  BAS[ATNO][  0].a[  6] =         1.833510000000;     BAS[ATNO][  0].d[  6] =         0.788551354478;
  BAS[ATNO][  0].a[  7] =         0.877715000000;     BAS[ATNO][  0].d[  7] =         0.459773978776;
  BAS[ATNO][  0].a[  8] =         0.051757000000;     BAS[ATNO][  0].d[  8] =         0.001762184816;
  BAS[ATNO][  0].a[  9] =      3672.400000000000;     BAS[ATNO][  0].d[  9] =         0.000012165710;
  BAS[ATNO][  0].a[ 10] =       558.143000000000;     BAS[ATNO][  0].d[ 10] =         0.000086857474;
  BAS[ATNO][  0].a[ 11] =       114.089000000000;     BAS[ATNO][  0].d[ 11] =         0.000140329975;
  BAS[ATNO][  0].a[ 12] =        31.400600000000;     BAS[ATNO][  0].d[ 12] =        -0.002576017031;
  BAS[ATNO][  0].a[ 13] =        19.631800000000;     BAS[ATNO][  0].d[ 13] =         0.014117308929;
  BAS[ATNO][  0].a[ 14] =         6.772050000000;     BAS[ATNO][  0].d[ 14] =        -0.070689528711;
  BAS[ATNO][  0].a[ 15] =         1.833510000000;     BAS[ATNO][  0].d[ 15] =         0.125645407461;
  BAS[ATNO][  0].a[ 16] =         0.877715000000;     BAS[ATNO][  0].d[ 16] =         0.099596089506;
  BAS[ATNO][  0].a[ 17] =         0.051757000000;     BAS[ATNO][  0].d[ 17] =        -0.046846164063;
  BAS[ATNO][  0].a[ 18] =         0.237396000000;     BAS[ATNO][  0].d[ 18] =        -0.353357155907;
  BAS[ATNO][  0].a[ 19] =         0.112068000000;     BAS[ATNO][  0].d[ 19] =         0.428909138061;
  BAS[ATNO][  0].a[ 20] =         0.063800000000;     BAS[ATNO][  0].d[ 20] =        -0.215315795134;
  BAS[ATNO][  0].a[ 21] =         0.025100000000;     BAS[ATNO][  0].d[ 21] =         0.054757350209;

FINAL SINGLE POINT ENERGY      -188.978485454308

DIPOLE MOMENT
-------------
                                X             Y             Z
Electronic contribution:     -0.00000       0.00000       0.00000
Nuclear contribution   :      0.00000       0.00000       0.00000
                        -----------------------------------------
Total Dipole Moment    :     -0.00000       0.00000       0.00000
                        -----------------------------------------
Magnitude (a.u.)       :      0.00000
Magnitude (Debye)      :      0.00000

Rotational constants in cm-1:     0.000000     0.000000     0.000000
Rotational constants in MHz :     0.000000     0.000000     0.000000

                             ****ORCA TERMINATED NORMALLY****
TOTAL RUN TIME: 0 days 0 hours 0 minutes 1 seconds 344 msec
