                         Program Version 4.2.0 -  RELEASE  -
|  1> #
|  2> # 51_Sb CCSD(T)/aug-cc-pVTZ-PP
|  3> #
|  4> ! CCSD(T) aug-cc-pVTZ-PP tightscf
|  5>
|  6> *xyz 0 4
|  7>  Sb 0.0 0.0 0.0
|  8> *
|  9>
| 10> %maxcore 5000
| 11>
| 12> %pal
| 13> nprocs 24
| 14> end
| 15>
| 16>
| 17>                          ****END OF INPUT****

CARTESIAN COORDINATES (ANGSTROEM)
---------------------------------
  Sb     0.000000    0.000000    0.000000

 Total Charge           Charge          ....    0
 Multiplicity           Mult            ....    4
 Number of Electrons    NEL             ....   23
 Basis Dimension        Dim             ....   55

ORBITAL ENERGIES
----------------
                 SPIN UP ORBITALS
  NO   OCC          E(Eh)            E(eV)
   0   1.0000      -6.525274      -177.5617
   1   1.0000      -4.592385      -124.9651
   2   1.0000      -4.592385      -124.9651
   3   1.0000      -4.592385      -124.9651
   4   1.0000      -1.619683       -44.0738
   5   1.0000      -1.619683       -44.0738
   6   1.0000      -1.619683       -44.0738
   7   1.0000      -1.619683       -44.0738
   8   1.0000      -1.619683       -44.0738
   9   1.0000      -0.731590       -19.9076
  10   1.0000      -0.334293        -9.0966
  11   1.0000      -0.334293        -9.0966
  12   1.0000      -0.334293        -9.0966
  13   0.0000       0.052632         1.4322
  14   0.0000       0.076317         2.0767
  15   0.0000       0.076317         2.0767
  16   0.0000       0.076317         2.0767
  17   0.0000       0.131794         3.5863

                 SPIN DOWN ORBITALS
  NO   OCC          E(Eh)            E(eV)
   0   1.0000      -6.512726      -177.2203
   1   1.0000      -4.579696      -124.6199
   2   1.0000      -4.579696      -124.6199
   3   1.0000      -4.579696      -124.6199
   4   1.0000      -1.607751       -43.7491
   5   1.0000      -1.607751       -43.7491
   6   1.0000      -1.607751       -43.7491
   7   1.0000      -1.607751       -43.7491
   8   1.0000      -1.607751       -43.7491
   9   1.0000      -0.507686       -13.8148
  10   0.0000       0.018704         0.5090
  11   0.0000       0.018704         0.5090
  12   0.0000       0.018704         0.5090
  13   0.0000       0.063370         1.7244
  14   0.0000       0.106650         2.9021

E(0)                                       ...   -239.277766070
E(0)                                       ...   -239.277766070
E(CORR)                                    ...     -0.137118717
E(TOT)                                     ...   -239.414884787
E(CCSD(T))                                 ...   -239.419699295

MULLIKEN ATOMIC CHARGES AND SPIN DENSITIES
------------------------------------------
   0 Sb:   -0.000000    3.000000
Sum of atomic charges       :   -0.0000000

LOEWDIN ATOMIC CHARGES AND SPIN DENSITIES
-----------------------------------------
   0 Sb:    0.000000    3.000000

FINAL SINGLE POINT ENERGY      -239.419699295186

DIPOLE MOMENT
-------------
                                X             Y             Z
Electronic contribution:      0.00000       0.00000      -0.00000
Nuclear contribution   :      0.00000       0.00000       0.00000
                        -----------------------------------------
Total Dipole Moment    :      0.00000       0.00000      -0.00000
                        -----------------------------------------
Magnitude (a.u.)       :      0.00000
Magnitude (Debye)      :      0.00000

Rotational constants in cm-1:     0.000000     0.000000     0.000000
Rotational constants in MHz :     0.000000     0.000000     0.000000

                             ****ORCA TERMINATED NORMALLY****
TOTAL RUN TIME: 0 days 0 hours 0 minutes 13 seconds 894 msec
