                         Program Version 4.2.0 -  RELEASE  -
|  1> # input to generate an atomic fitting density for Sb
|  2> # this file is use internally by ORCA
|  3> #
|  4> # atomic ground state (S=4): 1s2 2s2 2p6 3s2 3p6 4s2 3d10 4p6 5s2 4d10 5p3
|  5> #
|  6> ! RHF AllowRHF def2-SVP def2/J  NoMulliken NoLoewdin NoMayer NoPrintMOs
|  7>
|  8> %output print[p_atomdensfit] 2 end
|  9>
| 10> %scf
| 11>   guess hcore
| 12>   maxiter 1000
| 13>   maxdisk 500000
| 14>   SCFMode Conventional
| 15>   lshift 1.000000
| 16>   hftyp rohf
| 17>   rohf_case sahf
| 18>   rohf_numop   2
| 19>   rohf_norb[1] 3
| 20>   rohf_nel[1]  3
| 21> end
| 22>
| 23> %basis
| 24>   NewECP 51
| 25>     N_core 28
| 26>     lmax g
| 27>     s 2
| 28>       1      16.3308650000    281.0715810000  2
| 29>       2       8.5565420000     61.7166040000  2
| 30>     p 4
| 31>       1      14.4703370000     67.4573800000  2
| 32>       2      13.8161940000    134.9335030000  2
| 33>       3       8.4249240000     14.7163440000  2
| 34>       4       8.0927280000     29.5185120000  2
| 35>     d 4
| 36>       1      14.8863310000     35.4478150000  2
| 37>       2      15.1463190000     53.1434660000  2
| 38>       3       5.9082670000      9.1792230000  2
| 39>       4       5.5943220000     13.2402530000  2
| 40>     f 2
| 41>       1      14.4449780000    -15.3668010000  2
| 42>       2      14.4492950000    -20.2961380000  2
| 43>     g 1
| 44>       1       1.0000000000      0.0000000000  2
| 45>   end
| 46>   NewGTO 51
| 47>     s 9
| 48>      1    3928.3300000000      0.0001559043
| 49>      2     593.8890000000      0.0009425126
| 50>      3     120.1850000000      0.0028558842
| 51>      4      29.5140000000     -0.0560030687
| 52>      5      18.4422000000      0.2463207695
| 53>      6       7.4757100000     -0.7474540337
| 54>      7       1.9513600000      0.8770226945
| 55>      8       0.9522580000      0.4771391802
| 56>      9       0.0626280000      0.0013788423
| 57>     s 9
| 58>      1    3928.3300000000      0.0000918593
| 59>      2     593.8890000000      0.0006341254
| 60>      3     120.1850000000      0.0012993645
| 61>      4      29.5140000000     -0.0232804038
| 62>      5      18.4422000000      0.1229773662
| 63>      6       7.4757100000     -0.4377139650
| 64>      7       1.9513600000      0.7135437093
| 65>      8       0.9522580000      0.5685912302
| 66>      9       0.0626280000     -0.2480630513
| 67>     s 1
| 68>      1       0.2879680000      1.0000000000
| 69>     s 1
| 70>      1       0.1363960000      1.0000000000
| 71>     s 1
| 72>      1       0.0764000000      1.0000000000
| 73>     s 1
| 74>      1       0.0304000000      1.0000000000
| 75>     p 9
| 76>      1     210.4710000000      0.0002640000
| 77>      2      16.1414000000      0.0799049978
| 78>      3       9.8253000000     -0.2769489925
| 79>      4       2.7526700000      0.4836599870
| 80>      5       1.4214800000      0.5006969865
| 81>      6       0.7162460000      0.1665979955
| 82>      7       0.3202050000      0.0119689997
| 83>      8       0.1350880000      0.0002790000
| 84>      9       0.0551300000     -0.0000050000
| 85>     p 9
| 86>      1     210.4710000000     -0.0001020000
| 87>      2      16.1414000000     -0.0217609999
| 88>      3       9.8253000000      0.0806609996
| 89>      4       2.7526700000     -0.1746279991
| 90>      5       1.4214800000     -0.1841539990
| 91>      6       0.7162460000     -0.0534719997
| 92>      7       0.3202050000      0.3583119981
| 93>      8       0.1350880000      0.5683579969
| 94>      9       0.0551300000      0.2383429987
| 95>     p 1
| 96>      1       0.4332000000      1.0000000000
| 97>     p 1
| 98>      1       0.0737200000      1.0000000000
| 99>     p 1
|100>      1       0.0271000000      1.0000000000
|101>   end
|102>   NewAuxGTO 51
|103>     S 1
|104>      1 1310.72 1.0
|105>     S 1
|106>      1  655.36 1.0
|107>     S 1
|108>      1  327.68 1.0
|109>     S 1
|110>      1  163.84 1.0
|111>     S 1
|112>      1   81.82 1.0
|113>     S 1
|114>      1   40.96 1.0
|115>     S 1
|116>      1   20.48 1.0
|117>     S 1
|118>      1   10.24 1.0
|119>     S 1
|120>      1    5.12 1.0
|121>     S 1
|122>      1    2.56 1.0
|123>     S 1
|124>      1    1.28 1.0
|125>     S 1
|126>      1    0.64 1.0
|127>     S 1
|128>      1    0.32 1.0
|129>     S 1
|130>      1    0.16 1.0
|131>     S 1
|132>      1    0.08 1.0
|133>     S 1
|134>      1    0.04 1.0
|135>     S 1
|136>      1    0.02 1.0
|137>     S 1
|138>      1    0.01 1.0
|139>   end
|140> end
|141>
|142> * xyz 0 4
|143> 51  0.0 0.0 0.0
|144> *
|145>
|146>
|147>                          ****END OF INPUT****

CARTESIAN COORDINATES (ANGSTROEM)
---------------------------------
  Sb     0.000000    0.000000    0.000000

 Total Charge           Charge          ....    0
 Multiplicity           Mult            ....    4
 Number of Electrons    NEL             ....   23
 Basis Dimension        Dim             ....   21

ORBITAL ENERGIES
----------------

  NO   OCC          E(Eh)            E(eV)
   0   2.0000     -11.260099      -306.4029
   1   2.0000      -9.009345      -245.1567
   2   2.0000      -9.009345      -245.1567
   3   2.0000      -9.003934      -245.0095
   4   2.0000      -2.809563       -76.4521
   5   2.0000      -1.987346       -54.0784
   6   2.0000      -1.987346       -54.0784
   7   2.0000      -1.973323       -53.6969
   8   2.0000      -0.524883       -14.2828
   9   2.0000      -0.287267        -7.8169
  10   1.0000      -0.336880        -9.1670
  11   1.0000      -0.336880        -9.1670
  12   1.0000      -0.069031        -1.8784
  13   0.0000       0.056284         1.5316
  14   0.0000       0.056284         1.5316
  15   0.0000       0.068056         1.8519
  16   0.0000       0.347059         9.4440
  17   0.0000       0.917140        24.9567

CleanUpVectors: The p-vectors have cracked symmetry
CleanUpVectors: The p-vectors have cracked symmetry
CleanUpVectors: The p-vectors have cracked symmetry
CleanUpVectors: The p-vectors have cracked symmetry
CleanUpVectors: The p-vectors have cracked symmetry
CleanUpVectors: The p-vectors have cracked symmetry
CleanUpVectors: The p-vectors have cracked symmetry
CleanUpVectors: The p-vectors have cracked symmetry
CleanUpVectors: The p-vectors have cracked symmetry
CleanUpVectors: The p-vectors have cracked symmetry
CleanUpVectors: The p-vectors have cracked symmetry
CleanUpVectors: The p-vectors have cracked symmetry
CleanUpVectors: The p-vectors have cracked symmetry
CleanUpVectors: The p-vectors have cracked symmetry
--------------------------
ATOM BASIS FOR ELEMENT Sb
--------------------------
 NewGTO Sb
 S 22
    1       3928.330000000000        -0.000144704274
    2        593.889000000000        -0.000874803333
    3        120.185000000000        -0.002650720019
    4         29.514000000000         0.051979858057
    5         18.442200000000        -0.228625304510
    6          7.475710000000         0.693757600745
    7          1.951360000000        -0.814018164199
    8          0.952258000000        -0.442861925888
    9          0.062628000000        -0.001279787496
   10       3928.330000000000        -0.000017575551
   11        593.889000000000        -0.000121327978
   12        120.185000000000        -0.000248608979
   13         29.514000000000         0.004454267768
   14         18.442200000000        -0.023529407958
   15          7.475710000000         0.083748341419
   16          1.951360000000        -0.136523179433
   17          0.952258000000        -0.108789246591
   18          0.062628000000         0.047462203116
   19          0.287968000000         0.364193684322
   20          0.136396000000        -0.414687565360
   21          0.076400000000         0.199505056104
   22          0.030400000000        -0.053208179573
 P 43
    1        210.471000000000        -0.000072460544
    2         16.141400000000        -0.021931665259
    3          9.825300000000         0.076014676987
    4          2.752670000000        -0.132751007150
    5          1.421480000000        -0.137427182362
    6          0.716246000000        -0.045726444788
    7          0.320205000000        -0.003285152395
    8          0.135088000000        -0.000076577621
    9        210.471000000000        -0.000306943648
   10         16.141400000000        -0.092902770980
   11          9.825300000000         0.321998992952
   12          2.752670000000        -0.562334700478
   13          1.421480000000        -0.582143029197
   14          0.716246000000        -0.193697714133
   15          0.320205000000        -0.013915941038
   16          0.135088000000        -0.000324383628
   17          0.055130000000         0.000005813327
   18        210.471000000000         0.000037525972
   19         16.141400000000         0.011358002639
   20          9.825300000000        -0.039366591257
   21          2.752670000000         0.068749284276
   22          1.421480000000         0.071170988683
   23          0.716246000000         0.023680877601
   24          0.320205000000         0.001701319491
   25          0.135088000000         0.000039658129
   26        210.471000000000         0.000004827444
   27         16.141400000000         0.001029902069
   28          9.825300000000        -0.003817514397
   29          2.752670000000         0.008264773608
   30          1.421480000000         0.008715619022
   31          0.716246000000         0.002530716576
   32          0.320205000000        -0.016958148525
   33          0.135088000000        -0.026899181098
   34          0.055130000000        -0.011280269690
   35        210.471000000000         0.000020449105
   36         16.141400000000         0.004362676293
   37          9.825300000000        -0.016171032229
   38          2.752670000000         0.035009670293
   39          1.421480000000         0.036919456337
   40          0.716246000000         0.010720142755
   41          0.320205000000        -0.071834900360
   42          0.135088000000        -0.113945221741
   43          0.055130000000        -0.047783344275
 S 22
    1       3928.330000000000         0.000050484487
    2        593.889000000000         0.000305201747
    3        120.185000000000         0.000924784293
    4         29.514000000000        -0.018134754301
    5         18.442200000000         0.079762890459
    6          7.475710000000        -0.242038437661
    7          1.951360000000         0.283994992601
    8          0.952258000000         0.154505851217
    9          0.062628000000         0.000446492789
   10       3928.330000000000        -0.000135186404
   11        593.889000000000        -0.000933222138
   12        120.185000000000        -0.001912233317
   13         29.514000000000         0.034261028198
   14         18.442200000000        -0.180981869872
   15          7.475710000000         0.644169689942
   16          1.951360000000        -1.050099532419
   17          0.952258000000        -0.836777589359
   18          0.062628000000         0.365066485466
   19          0.287968000000         2.770061077915
   20          0.136396000000        -2.121752202535
   21          0.076400000000         0.850993405049
   22          0.030400000000        -0.280570830272
 P 43
    1        210.471000000000         0.000038406072
    2         16.141400000000         0.011624382953
    3          9.825300000000        -0.040289859658
    4          2.752670000000         0.070361667766
    5          1.421480000000         0.072840168636
    6          0.716246000000         0.024236267471
    7          0.320205000000         0.001741220698
    8          0.135088000000         0.000040588235
    9        210.471000000000        -0.000199892779
   10         16.141400000000        -0.060501636725
   11          9.825300000000         0.209697363079
   12          2.752670000000        -0.366212647986
   13          1.421480000000        -0.379112546403
   14          0.716246000000        -0.126142940746
   15          0.320205000000        -0.009062562940
   16          0.135088000000        -0.000211250324
   17          0.055130000000         0.000003785848
   18        210.471000000000         0.000018437762
   19         16.141400000000         0.005580565582
   20          9.825300000000        -0.019342119492
   21          2.752670000000         0.033778816732
   22          1.421480000000         0.034968680892
   23          0.716246000000         0.011635205122
   24          0.320205000000         0.000835915019
   25          0.135088000000         0.000019485362
   26        210.471000000000        -0.000000829667
   27         16.141400000000        -0.000177003806
   28          9.825300000000         0.000656095950
   29          2.752670000000        -0.001420422800
   30          1.421480000000        -0.001497907210
   31          0.716246000000        -0.000434940834
   32          0.320205000000         0.002914507033
   33          0.135088000000         0.004623019570
   34          0.055130000000         0.001938680116
   35        210.471000000000         0.000004318184
   36         16.141400000000         0.000921254916
   37          9.825300000000        -0.003414794485
   38          2.752670000000         0.007392900301
   39          1.421480000000         0.007796184814
   40          0.716246000000         0.002263744444
   41          0.320205000000        -0.015169187601
   42          0.135088000000        -0.024061513778
   43          0.055130000000        -0.010090283551
 S 22
    1       3928.330000000000        -0.000062140129
    2        593.889000000000        -0.000375665422
    3        120.185000000000        -0.001138294538
    4         29.514000000000         0.022321628872
    5         18.442200000000        -0.098178205728
    6          7.475710000000         0.297919237755
    7          1.951360000000        -0.349562542790
    8          0.952258000000        -0.190177501838
    9          0.062628000000        -0.000549577136
   10       3928.330000000000         0.000095577719
   11        593.889000000000         0.000659794479
   12        120.185000000000         0.001351962125
   13         29.514000000000        -0.024222782908
   14         18.442200000000         0.127955428510
   15          7.475710000000        -0.455432407499
   16          1.951360000000         0.742427601966
   17          0.952258000000         0.591607518971
   18          0.062628000000        -0.258104519615
   19          0.287968000000        -5.046064019024
   20          0.136396000000        12.221859119055
   21          0.076400000000       -10.116608781092
   22          0.030400000000         2.679097751182
 P 43
    1        210.471000000000        -0.000200237449
    2         16.141400000000        -0.060605958068
    3          9.825300000000         0.210058938598
    4          2.752670000000        -0.366844098598
    5          1.421480000000        -0.379766239963
    6          0.716246000000        -0.126360445623
    7          0.320205000000        -0.009078189274
    8          0.135088000000        -0.000211614577
    9          0.055130000000         0.000003792376
   10        210.471000000000        -0.000036818524
   11         16.141400000000        -0.011143879179
   12          9.825300000000         0.038624443979
   13          2.752670000000        -0.067453208275
   14          1.421480000000        -0.069829258200
   15          0.716246000000        -0.023234440704
   16          0.320205000000        -0.001669245857
   17          0.135088000000        -0.000038910486
   18        210.471000000000         0.000017929331
   19         16.141400000000         0.005426678640
   20          9.825300000000        -0.018808750685
   21          2.752670000000         0.032847348638
   22          1.421480000000         0.034004401686
   23          0.716246000000         0.011314358408
   24          0.320205000000         0.000812864236
   25          0.135088000000         0.000018948043
   26        210.471000000000         0.000004325630
   27         16.141400000000         0.000922843411
   28          9.825300000000        -0.003420682523
   29          2.752670000000         0.007405647680
   30          1.421480000000         0.007809627566
   31          0.716246000000         0.002267647757
   32          0.320205000000        -0.015195343422
   33          0.135088000000        -0.024103002399
   34          0.055130000000        -0.010107681955
   35        210.471000000000         0.000000795372
   36         16.141400000000         0.000169687202
   37          9.825300000000        -0.000628975664
   38          2.752670000000         0.001361708413
   39          1.421480000000         0.001435989939
   40          0.716246000000         0.000416962184
   41          0.320205000000        -0.002794033402
   42          0.135088000000        -0.004431923117
   43          0.055130000000        -0.001858543122
 P 43
    1        210.471000000000         0.000007985162
    2         16.141400000000         0.002416872606
    3          9.825300000000        -0.008376828128
    4          2.752670000000         0.014629179717
    5          1.421480000000         0.015144494885
    6          0.716246000000         0.005039060667
    7          0.320205000000         0.000362024257
    8          0.135088000000         0.000008438865
    9        210.471000000000        -0.000113976323
   10         16.141400000000        -0.034497264572
   11          9.825300000000         0.119566772169
   12          2.752670000000        -0.208809799057
   13          1.421480000000        -0.216165157237
   14          0.716246000000        -0.071925102135
   15          0.320205000000        -0.005167358246
   16          0.135088000000        -0.000120452251
   17        210.471000000000         0.000011488361
   18         16.141400000000         0.003477187483
   19          9.825300000000        -0.012051856538
   20          2.752670000000         0.021047199789
   21          1.421480000000         0.021788590729
   22          0.716246000000         0.007249765104
   23          0.320205000000         0.000520849222
   24          0.135088000000         0.000012141109
   25        210.471000000000        -0.000002550222
   26         16.141400000000        -0.000544072339
   27          9.825300000000         0.002016700469
   28          2.752670000000        -0.004366079882
   29          1.421480000000        -0.004604250604
   30          0.716246000000        -0.001336916321
   31          0.320205000000         0.008958579464
   32          0.135088000000         0.014210186391
   33          0.055130000000         0.005959093485
   34        210.471000000000         0.000036400628
   35         16.141400000000         0.007765824054
   36          9.825300000000        -0.028785402039
   37          2.752670000000         0.062319301600
   38          1.421480000000         0.065718834687
   39          0.716246000000         0.019082493607
   40          0.320205000000        -0.127870407904
   41          0.135088000000        -0.202829292027
   42          0.055130000000        -0.085057203294
   43        210.471000000000        -0.000003669039
 P 43
    1        210.471000000000        -0.000016340504
    2         16.141400000000        -0.004945787666
    3          9.825300000000         0.017141992978
    4          2.752670000000        -0.029936545449
    5          1.421480000000        -0.030991064994
    6          0.716246000000        -0.010311724348
    7          0.320205000000        -0.000740831396
    8          0.135088000000        -0.000017268942
    9        210.471000000000         0.000001398854
   10         16.141400000000         0.000423391782
   11          9.825300000000        -0.001467466750
   12          2.752670000000         0.002562764150
   13          1.421480000000         0.002653037923
   14          0.716246000000         0.000882751069
   15          0.320205000000         0.000063420014
   16          0.135088000000         0.000001478334
   17        210.471000000000         0.000000997657
   18         16.141400000000         0.000301961152
   19          9.825300000000        -0.001046590817
   20          2.752670000000         0.001827752094
   21          1.421480000000         0.001892134950
   22          0.716246000000         0.000629574170
   23          0.320205000000         0.000045230875
   24          0.135088000000         0.000001054342
   25        210.471000000000        -0.000018088458
   26         16.141400000000        -0.003859048290
   27          9.825300000000         0.014304245854
   28          2.752670000000        -0.030968148727
   29          1.421480000000        -0.032657468785
   30          0.716246000000        -0.009482607875
   31          0.320205000000         0.063542268736
   32          0.135088000000         0.100791368329
   33          0.055130000000         0.042267227877
   34        210.471000000000         0.000001548490
   35         16.141400000000         0.000330359781
   36          9.825300000000        -0.001224537031
   37          2.752670000000         0.002651076140
   38          1.421480000000         0.002795692990
   39          0.716246000000         0.000811773274
   40          0.320205000000        -0.005439633929
   41          0.135088000000        -0.008628400557
   42          0.055130000000        -0.003618351240
   43        210.471000000000         0.000001104376
 P 43
    1        210.471000000000        -0.000492957192
    2         16.141400000000        -0.149203573236
    3          9.825300000000         0.517136354705
    4          2.752670000000        -0.903119958430
    5          1.421480000000        -0.934932501732
    6          0.716246000000        -0.311082121355
    7          0.320205000000        -0.022349259401
    8          0.135088000000        -0.000520966123
    9          0.055130000000         0.000009336310
   10        210.471000000000        -0.000627869905
   11         16.141400000000        -0.190037664331
   12          9.825300000000         0.658666430419
   13          2.752670000000        -1.150286174714
   14          1.421480000000        -1.190805187057
   15          0.716246000000        -0.396219195529
   16          0.320205000000        -0.028465813278
   17          0.135088000000        -0.000663544331
   18          0.055130000000         0.000011891475
   19        210.471000000000         0.000100928545
   20         16.141400000000         0.030548087712
   21          9.825300000000        -0.105879010669
   22          2.752670000000         0.184905676896
   23          1.421480000000         0.191419008595
   24          0.716246000000         0.063691262365
   25          0.320205000000         0.004575809558
   26          0.135088000000         0.000106663121
   27        210.471000000000         0.000400035717
   28         16.141400000000         0.085344874398
   29          9.825300000000        -0.316345889956
   30          2.752670000000         0.684876830941
   31          1.421480000000         0.722237028942
   32          0.716246000000         0.209712840365
   33          0.320205000000        -1.405270558052
   34          0.135088000000        -2.229053907522
   35          0.055130000000        -0.934761885080
   36        210.471000000000         0.000509517645
   37         16.141400000000         0.108702092326
   38          9.825300000000        -0.402923554338
   39          2.752670000000         0.872314184466
   40          1.421480000000         0.919899135773
   41          0.716246000000         0.267107130875
   42          0.320205000000        -1.789865542856
   43          0.135088000000        -2.839102235070
 end
  // -----------------------------------------------
  // The basis set
  // -----------------------------------------------
  BAS[ATNO] = new BFNGauss[NSH];
  // Basis function   1 L = s
  InitBFNGauss(BAS[ATNO][  0]);
  BAS[ATNO][  0].l  = 0;
  BAS[ATNO][  0].ng = 22;
  BAS[ATNO][  0].a[  0] =      3928.330000000000;     BAS[ATNO][  0].d[  0] =         0.000144704274;
  BAS[ATNO][  0].a[  1] =       593.889000000000;     BAS[ATNO][  0].d[  1] =         0.000874803333;
  BAS[ATNO][  0].a[  2] =       120.185000000000;     BAS[ATNO][  0].d[  2] =         0.002650720019;
  BAS[ATNO][  0].a[  3] =        29.514000000000;     BAS[ATNO][  0].d[  3] =        -0.051979858057;
  BAS[ATNO][  0].a[  4] =        18.442200000000;     BAS[ATNO][  0].d[  4] =         0.228625304510;
  BAS[ATNO][  0].a[  5] =         7.475710000000;     BAS[ATNO][  0].d[  5] =        -0.693757600745;
  BAS[ATNO][  0].a[  6] =         1.951360000000;     BAS[ATNO][  0].d[  6] =         0.814018164199;
  BAS[ATNO][  0].a[  7] =         0.952258000000;     BAS[ATNO][  0].d[  7] =         0.442861925888;
  BAS[ATNO][  0].a[  8] =         0.062628000000;     BAS[ATNO][  0].d[  8] =         0.001279787496;
  BAS[ATNO][  0].a[  9] =      3928.330000000000;     BAS[ATNO][  0].d[  9] =         0.000017575551;
  BAS[ATNO][  0].a[ 10] =       593.889000000000;     BAS[ATNO][  0].d[ 10] =         0.000121327978;
  BAS[ATNO][  0].a[ 11] =       120.185000000000;     BAS[ATNO][  0].d[ 11] =         0.000248608979;
  BAS[ATNO][  0].a[ 12] =        29.514000000000;     BAS[ATNO][  0].d[ 12] =        -0.004454267768;
  BAS[ATNO][  0].a[ 13] =        18.442200000000;     BAS[ATNO][  0].d[ 13] =         0.023529407958;
  BAS[ATNO][  0].a[ 14] =         7.475710000000;     BAS[ATNO][  0].d[ 14] =        -0.083748341419;
  BAS[ATNO][  0].a[ 15] =         1.951360000000;     BAS[ATNO][  0].d[ 15] =         0.136523179433;
  BAS[ATNO][  0].a[ 16] =         0.952258000000;     BAS[ATNO][  0].d[ 16] =         0.108789246591;
  BAS[ATNO][  0].a[ 17] =         0.062628000000;     BAS[ATNO][  0].d[ 17] =        -0.047462203116;
  BAS[ATNO][  0].a[ 18] =         0.287968000000;     BAS[ATNO][  0].d[ 18] =        -0.364193684322;
  BAS[ATNO][  0].a[ 19] =         0.136396000000;     BAS[ATNO][  0].d[ 19] =         0.414687565360;
  BAS[ATNO][  0].a[ 20] =         0.076400000000;     BAS[ATNO][  0].d[ 20] =        -0.199505056104;
  BAS[ATNO][  0].a[ 21] =         0.030400000000;     BAS[ATNO][  0].d[ 21] =         0.053208179573;

FINAL SINGLE POINT ENERGY      -210.173389497377

DIPOLE MOMENT
-------------
                                X             Y             Z
Electronic contribution:     -0.00000      -0.00000       0.00000
Nuclear contribution   :      0.00000       0.00000       0.00000
                        -----------------------------------------
Total Dipole Moment    :     -0.00000      -0.00000       0.00000
                        -----------------------------------------
Magnitude (a.u.)       :      0.00000
Magnitude (Debye)      :      0.00000

Rotational constants in cm-1:     0.000000     0.000000     0.000000
Rotational constants in MHz :     0.000000     0.000000     0.000000

                             ****ORCA TERMINATED NORMALLY****
TOTAL RUN TIME: 0 days 0 hours 0 minutes 1 seconds 138 msec
