                         Program Version 4.2.0 -  RELEASE  -
|  1> # input to generate an atomic fitting density for Te
|  2> # this file is use internally by ORCA
|  3> #
|  4> # atomic ground state (S=3): 1s2 2s2 2p6 3s2 3p6 4s2 3d10 4p6 5s2 4d10 5p4
|  5> #
|  6> ! RHF AllowRHF def2-SVP def2/J  NoMulliken NoLoewdin NoMayer NoPrintMOs
|  7>
|  8> %output print[p_atomdensfit] 2 end
|  9>
| 10> %scf
| 11>   guess hcore
| 12>   maxiter 1000
| 13>   maxdisk 500000
| 14>   SCFMode Conventional
| 15>   lshift 1.000000
| 16>   hftyp rohf
| 17>   rohf_case sahf
| 18>   rohf_numop   2
| 19>   rohf_norb[1] 3
| 20>   rohf_nel[1]  4
| 21> end
| 22>
| 23> %basis
| 24>   NewECP 52
| 25>     N_core 28
| 26>     lmax g
| 27>     s 2
| 28>       1      16.8144730000    281.0458430000  2
| 29>       2       8.7935260000     61.6206560000  2
| 30>     p 4
| 31>       1      14.8778010000     67.4494640000  2
| 32>       2      14.2697310000    134.9043040000  2
| 33>       3       8.7244350000     14.6895470000  2
| 34>       4       8.2915150000     29.4150630000  2
| 35>     d 4
| 36>       1      15.2050080000     35.4320570000  2
| 37>       2      15.2258480000     53.1356870000  2
| 38>       3       6.0717690000      9.0698020000  2
| 39>       4       5.8047600000     13.1223040000  2
| 40>     f 2
| 41>       1      15.2061680000    -15.7454500000  2
| 42>       2      15.2017020000    -20.7424480000  2
| 43>     g 1
| 44>       1       1.0000000000      0.0000000000  2
| 45>   end
| 46>   NewGTO 52
| 47>     s 9
| 48>      1    5324.9800000000      0.0002056653
| 49>      2     803.6740000000      0.0013292261
| 50>      3     175.1460000000      0.0038721815
| 51>      4      29.6182000000     -0.0458410775
| 52>      5      18.5344000000      0.2501275280
| 53>      6       7.9615000000     -0.7600093421
| 54>      7       2.0653900000      0.8910424660
| 55>      8       1.0245700000      0.4641288788
| 56>      9       0.0720190000      0.0011043113
| 57>     s 9
| 58>      1    5324.9800000000     -0.0001284371
| 59>      2     803.6740000000     -0.0008893927
| 60>      3     175.1460000000     -0.0022372923
| 61>      4      29.6182000000      0.0169799434
| 62>      5      18.5344000000     -0.1220650086
| 63>      6       7.9615000000      0.4393240997
| 64>      7       2.0653900000     -0.7330267130
| 65>      8       1.0245700000     -0.5481062213
| 66>      9       0.0720190000      0.2155852062
| 67>     s 1
| 68>      1       0.3338430000      1.0000000000
| 69>     s 1
| 70>      1       0.1578110000      1.0000000000
| 71>     s 1
| 72>      1       0.0884000000      1.0000000000
| 73>     s 1
| 74>      1       0.0354000000      1.0000000000
| 75>     p 9
| 76>      1     193.7750000000      0.0004000001
| 77>      2      17.5508000000      0.0686080216
| 78>      3      10.1951000000     -0.2665700838
| 79>      4       2.9737700000      0.4735331489
| 80>      5       1.5564700000      0.5102311605
| 81>      6       0.7875460000      0.1675130527
| 82>      7       0.3684730000      0.0117410037
| 83>      8       0.1542730000      0.0011710004
| 84>      9       0.0619050000      0.0000750000
| 85>     p 9
| 86>      1     193.7750000000     -0.0001670001
| 87>      2      17.5508000000     -0.0200760160
| 88>      3      10.1951000000      0.0844810674
| 89>      4       2.9737700000     -0.1888351507
| 90>      5       1.5564700000     -0.2053641639
| 91>      6       0.7875460000     -0.0507390405
| 92>      7       0.3684730000      0.3853023076
| 93>      8       0.1542730000      0.5591884464
| 94>      9       0.0619050000      0.2313121847
| 95>     p 1
| 96>      1       0.5043000000      1.0000000000
| 97>     p 1
| 98>      1       0.0815000000      1.0000000000
| 99>     p 1
|100>      1       0.0306000000      1.0000000000
|101>   end
|102>   NewAuxGTO 52
|103>     S 1
|104>      1 1310.72 1.0
|105>     S 1
|106>      1  655.36 1.0
|107>     S 1
|108>      1  327.68 1.0
|109>     S 1
|110>      1  163.84 1.0
|111>     S 1
|112>      1   81.82 1.0
|113>     S 1
|114>      1   40.96 1.0
|115>     S 1
|116>      1   20.48 1.0
|117>     S 1
|118>      1   10.24 1.0
|119>     S 1
|120>      1    5.12 1.0
|121>     S 1
|122>      1    2.56 1.0
|123>     S 1
|124>      1    1.28 1.0
|125>     S 1
|126>      1    0.64 1.0
|127>     S 1
|128>      1    0.32 1.0
|129>     S 1
|130>      1    0.16 1.0
|131>     S 1
|132>      1    0.08 1.0
|133>     S 1
|134>      1    0.04 1.0
|135>     S 1
|136>      1    0.02 1.0
|137>     S 1
|138>      1    0.01 1.0
|139>   end
|140> end
|141>
|142> * xyz 0 3
|143> 52  0.0 0.0 0.0
|144> *
|145>
|146>
|147>                          ****END OF INPUT****

CARTESIAN COORDINATES (ANGSTROEM)
---------------------------------
  Te     0.000000    0.000000    0.000000

 Total Charge           Charge          ....    0
 Multiplicity           Mult            ....    3
 Number of Electrons    NEL             ....   24
 Basis Dimension        Dim             ....   21

ORBITAL ENERGIES
----------------

  NO   OCC          E(Eh)            E(eV)
   0   2.0000     -12.249787      -333.3336
   1   2.0000      -9.885375      -268.9947
   2   2.0000      -9.885375      -268.9947
   3   2.0000      -9.881247      -268.8824
   4   2.0000      -3.182667       -86.6048
   5   2.0000      -2.283228       -62.1298
   6   2.0000      -2.283228       -62.1298
   7   2.0000      -2.273023       -61.8521
   8   2.0000      -0.630375       -17.1534
   9   2.0000      -0.346508        -9.4290
  10   1.3333      -0.366033        -9.9603
  11   1.3333      -0.366033        -9.9603
  12   1.3333      -0.073052        -1.9878
  13   0.0000       0.037114         1.0099
  14   0.0000       0.037114         1.0099
  15   0.0000       0.044452         1.2096
  16   0.0000       0.355449         9.6723
  17   0.0000       0.998306        27.1653

CleanUpVectors: The p-vectors have cracked symmetry
CleanUpVectors: The p-vectors have cracked symmetry
CleanUpVectors: The p-vectors have cracked symmetry
CleanUpVectors: The p-vectors have cracked symmetry
CleanUpVectors: The p-vectors have cracked symmetry
CleanUpVectors: The p-vectors have cracked symmetry
CleanUpVectors: The p-vectors have cracked symmetry
CleanUpVectors: The p-vectors have cracked symmetry
CleanUpVectors: The p-vectors have cracked symmetry
CleanUpVectors: The p-vectors have cracked symmetry
CleanUpVectors: The p-vectors have cracked symmetry
CleanUpVectors: The p-vectors have cracked symmetry
CleanUpVectors: The p-vectors have cracked symmetry
CleanUpVectors: The p-vectors have cracked symmetry
--------------------------
ATOM BASIS FOR ELEMENT Te
--------------------------
 NewGTO Te
 S 22
    1       5324.980000000000        -0.000189280699
    2        803.674000000000        -0.001223331525
    3        175.146000000000        -0.003563698983
    4         29.618200000000         0.042189086767
    5         18.534400000000        -0.230200784038
    6          7.961500000000         0.699462181657
    7          2.065390000000        -0.820056376538
    8          1.024570000000        -0.427153431086
    9          0.072019000000        -0.001016334864
   10       5324.980000000000        -0.000026860299
   11        803.674000000000        -0.000186000417
   12        175.146000000000        -0.000467889269
   13         29.618200000000         0.003551048428
   14         18.534400000000        -0.025527691505
   15          7.961500000000         0.091876699279
   16          2.065390000000        -0.153299295258
   17          1.024570000000        -0.114626514916
   18          0.072019000000         0.045085751436
   19          0.333843000000         0.374335773507
   20          0.157811000000        -0.413930232579
   21          0.088400000000         0.199997790986
   22          0.035400000000        -0.052939652924
 P 43
    1        193.775000000000         0.000114988041
    2         17.550800000000         0.019722750037
    3         10.195100000000        -0.076630910023
    4          2.973770000000         0.136126588584
    5          1.556470000000         0.146676167085
    6          0.787546000000         0.048154982308
    7          0.368473000000         0.003375186687
    8          0.154273000000         0.000336627520
    9          0.061905000000         0.000021560252
   10        193.775000000000        -0.000463104518
   11         17.550800000000        -0.079431692058
   12         10.195100000000         0.308624448198
   13          2.973770000000        -0.548238214504
   14          1.556470000000        -0.590725741306
   15          0.787546000000        -0.193940080291
   16          0.368473000000        -0.013593276247
   17          0.154273000000        -0.001355738600
   18          0.061905000000        -0.000086832075
   19        193.775000000000         0.000066138515
   20         17.550800000000         0.011344078890
   21         10.195100000000        -0.044076362935
   22          2.973770000000         0.078296929029
   23          1.556470000000         0.084364807522
   24          0.787546000000         0.027697654598
   25          0.368473000000         0.001941330899
   26          0.154273000000         0.000193620521
   27          0.061905000000         0.000012400969
   28        193.775000000000        -0.000006894154
   29         17.550800000000        -0.000828784833
   30         10.195100000000         0.003487575789
   31          2.973770000000        -0.007795556092
   32          1.556470000000        -0.008477912364
   33          0.787546000000        -0.002094626105
   34          0.368473000000         0.015906179226
   35          0.154273000000         0.023084605190
   36          0.061905000000         0.009549107271
   37        193.775000000000         0.000027765617
   38         17.550800000000         0.003337860162
   39         10.195100000000        -0.014045913757
   40          2.973770000000         0.031395936660
   41          1.556470000000         0.034144068295
   42          0.787546000000         0.008435927823
   43          0.368473000000        -0.064060778935
 S 22
    1       5324.980000000000         0.000071498017
    2        803.674000000000         0.000462095599
    3        175.146000000000         0.001346135190
    4         29.618200000000        -0.015936310729
    5         18.534400000000         0.086954980675
    6          7.961500000000        -0.264211613106
    7          2.065390000000         0.309764307157
    8          1.024570000000         0.161350963684
    9          0.072019000000         0.000383905636
   10       5324.980000000000        -0.000201809921
   11        803.674000000000        -0.001397479939
   12        175.146000000000        -0.003515400009
   13         29.618200000000         0.026680149567
   14         18.534400000000        -0.191797617321
   15          7.961500000000         0.690298690187
   16          2.065390000000        -1.151786073656
   17          1.024570000000        -0.861225247841
   18          0.072019000000         0.338743505228
   19          0.333843000000         2.791744107084
   20          0.157811000000        -2.041565423411
   21          0.088400000000         0.829875934485
   22          0.035400000000        -0.270480220472
 P 43
    1        193.775000000000         0.000074972417
    2         17.550800000000         0.012859269801
    3         10.195100000000        -0.049963496227
    4          2.973770000000         0.088754789590
    5          1.556470000000         0.095633134444
    6          0.787546000000         0.031397138258
    7          0.368473000000         0.002200628014
    8          0.154273000000         0.000219481771
    9          0.061905000000         0.000014057325
   10        193.775000000000        -0.000301027712
   11         17.550800000000        -0.051632276572
   12         10.195100000000         0.200612406124
   13          2.973770000000        -0.356366412262
   14          1.556470000000        -0.383984201558
   15          0.787546000000        -0.126065146097
   16          0.368473000000        -0.008835916503
   17          0.154273000000        -0.000881258709
   18          0.061905000000        -0.000056442682
   19        193.775000000000         0.000023474766
   20         17.550800000000         0.004026392111
   21         10.195100000000        -0.015644171881
   22          2.973770000000         0.027790192610
   23          1.556470000000         0.029943885151
   24          0.787546000000         0.009830821792
   25          0.368473000000         0.000689043111
   26          0.154273000000         0.000068722384
   27          0.061905000000         0.000004401518
   28        193.775000000000         0.000003279701
   29         17.550800000000         0.000394271197
   30         10.195100000000        -0.001659116609
   31          2.973770000000         0.003708517713
   32          1.556470000000         0.004033129620
   33          0.787546000000         0.000996459768
   34          0.368473000000        -0.007566919758
   35          0.154273000000        -0.010981855078
   36          0.061905000000        -0.004542720628
   37        193.775000000000        -0.000013168588
   38         17.550800000000        -0.001583069631
   39         10.195100000000         0.006661651008
   40          2.973770000000        -0.014890364322
   41          1.556470000000        -0.016193739396
   42          0.787546000000        -0.004000964839
   43          0.368473000000         0.030382541138
 S 22
    1       5324.980000000000        -0.000092124295
    2        803.674000000000        -0.000595404365
    3        175.146000000000        -0.001734478256
    4         29.618200000000         0.020533735864
    5         18.534400000000        -0.112040398534
    6          7.961500000000         0.340433339181
    7          2.065390000000        -0.399127412321
    8          1.024570000000        -0.207898686592
    9          0.072019000000        -0.000494657582
   10       5324.980000000000         0.000149066018
   11        803.674000000000         0.001032242459
   12        175.146000000000         0.002596634879
   13         29.618200000000        -0.019707176069
   14         18.534400000000         0.141670473197
   15          7.961500000000        -0.509886115647
   16          2.065390000000         0.850761757919
   17          1.024570000000         0.636140271684
   18          0.072019000000        -0.250211412156
   19          0.333843000000        -5.209713667353
   20          0.157811000000        12.411625061618
   21          0.088400000000       -10.285675944407
   22          0.035400000000         2.744359125144
 P 43
    1        193.775000000000         0.000009100320
    2         17.550800000000         0.001560886996
    3         10.195100000000        -0.006064681179
    4          2.973770000000         0.010773255328
    5          1.556470000000         0.011608164246
    6          0.787546000000         0.003811055027
    7          0.368473000000         0.000267117162
    8          0.154273000000         0.000026641189
    9        193.775000000000        -0.000021923825
   10         17.550800000000        -0.003760374726
   11         10.195100000000         0.014610586087
   12          2.973770000000        -0.025954138358
   13          1.556470000000        -0.027965539826
   14          0.787546000000        -0.009181314881
   15          0.368473000000        -0.000643519118
   16          0.154273000000        -0.000064182004
   17          0.061905000000        -0.000004110716
   18        193.775000000000        -0.000310203388
   19         17.550800000000        -0.053206088476
   20         10.195100000000         0.206727305831
   21          2.973770000000        -0.367228875418
   22          1.556470000000        -0.395688487086
   23          0.787546000000        -0.129907758525
   24          0.368473000000        -0.009105245525
   25          0.154273000000        -0.000908120500
   26          0.061905000000        -0.000058163121
   27        193.775000000000         0.000000398097
   28         17.550800000000         0.000047857522
   29         10.195100000000        -0.000201387293
   30          2.973770000000         0.000450148194
   31          1.556470000000         0.000489550315
   32          0.787546000000         0.000120952520
   33          0.368473000000        -0.000918489683
   34          0.154273000000        -0.001333002188
   35          0.061905000000        -0.000551405614
   36        193.775000000000        -0.000000959067
   37         17.550800000000        -0.000115294839
   38         10.195100000000         0.000485167530
   39          2.973770000000        -0.001084464087
   40          1.556470000000        -0.001179388793
   41          0.787546000000        -0.000291389961
   42          0.368473000000         0.002212758131
   43          0.154273000000         0.003211371324
 P 43
    1        193.775000000000         0.000046733541
    2         17.550800000000         0.008015737523
    3         10.195100000000        -0.031144402263
    4          2.973770000000         0.055324688592
    5          1.556470000000         0.059612257622
    6          0.787546000000         0.019571190522
    7          0.368473000000         0.001371746360
    8          0.154273000000         0.000136812455
    9          0.061905000000         0.000008762537
   10        193.775000000000        -0.000187067313
   11         17.550800000000        -0.032085787588
   12         10.195100000000         0.124666342019
   13          2.973770000000        -0.221456378963
   14          1.556470000000        -0.238618870718
   15          0.787546000000        -0.078340522023
   16          0.368473000000        -0.005490893659
   17          0.154273000000        -0.000547639609
   18          0.061905000000        -0.000035075112
   19        193.775000000000         0.000002290200
   20         17.550800000000         0.000392815133
   21         10.195100000000        -0.001526246648
   22          2.973770000000         0.002711213393
   23          1.556470000000         0.002921327808
   24          0.787546000000         0.000959095753
   25          0.368473000000         0.000067223101
   26          0.154273000000         0.000006704561
   27        193.775000000000        -0.000014247132
   28         17.550800000000        -0.001712727413
   29         10.195100000000         0.007207258650
   30          2.973770000000        -0.016109926345
   31          1.556470000000        -0.017520051442
   32          0.787546000000        -0.004328654926
   33          0.368473000000         0.032870955290
   34          0.154273000000         0.047705549792
   35          0.061905000000         0.019733732011
   36        193.775000000000         0.000057029119
   37         17.550800000000         0.006855789352
   38         10.195100000000        -0.028849568674
   39          2.973770000000         0.064485603885
   40          1.556470000000         0.070130121836
   41          0.787546000000         0.017326952398
   42          0.368473000000        -0.131577473218
   43          0.154273000000        -0.190958116208
 P 43
    1        193.775000000000         0.000008689580
    2         17.550800000000         0.001490436855
    3         10.195100000000        -0.005790953711
    4          2.973770000000         0.010287007855
    5          1.556470000000         0.011084233423
    6          0.787546000000         0.003639044263
    7          0.368473000000         0.000255060913
    8          0.154273000000         0.000025438748
    9        193.775000000000        -0.000034459299
   10         17.550800000000        -0.005910459298
   11         10.195100000000         0.022964539621
   12          2.973770000000        -0.040794040369
   13          1.556470000000        -0.043955508938
   14          0.787546000000        -0.014430952194
   15          0.368473000000        -0.001011466631
   16          0.154273000000        -0.000100879606
   17          0.061905000000        -0.000006461117
   18        193.775000000000        -0.000006509207
   19         17.550800000000        -0.001116459203
   20         10.195100000000         0.004337898344
   21          2.973770000000        -0.007705810919
   22          1.556470000000        -0.008302998126
   23          0.787546000000        -0.002725942025
   24          0.368473000000        -0.000191061502
   25          0.154273000000        -0.000019055704
   26        193.775000000000         0.000004800586
   27         17.550800000000         0.000577105283
   28         10.195100000000        -0.002428493296
   29          2.973770000000         0.005428256433
   30          1.556470000000         0.005903399551
   31          0.787546000000         0.001458544778
   32          0.368473000000        -0.011075902564
   33          0.154273000000        -0.016074434607
   34          0.061905000000        -0.006649301520
   35        193.775000000000        -0.000019037148
   36         17.550800000000        -0.002288562090
   37         10.195100000000         0.009630405164
   38          2.973770000000        -0.021526231455
   39          1.556470000000        -0.023410453553
   40          0.787546000000        -0.005783988445
   41          0.368473000000         0.043922472182
   42          0.154273000000         0.063744593523
   43          0.061905000000         0.026368393849
 P 43
    1        193.775000000000         0.000309417317
    2         17.550800000000         0.053071261712
    3         10.195100000000        -0.206203448985
    4          2.973770000000         0.366298299944
    5          1.556470000000         0.394685793600
    6          0.787546000000         0.129578566073
    7          0.368473000000         0.009082172399
    8          0.154273000000         0.000905819279
    9          0.061905000000         0.000058015732
   10        193.775000000000        -0.001237133589
   11         17.550800000000        -0.212193166933
   12         10.195100000000         0.824456805079
   13          2.973770000000        -1.464559043819
   14          1.556470000000        -1.578059872438
   15          0.787546000000        -0.518089930683
   16          0.368473000000        -0.036312966035
   17          0.154273000000        -0.003621708913
   18          0.061905000000        -0.000231962490
   19        193.775000000000        -0.000015192763
   20         17.550800000000        -0.002605862843
   21         10.195100000000         0.010124837594
   22          2.973770000000        -0.017985687515
   23          1.556470000000        -0.019379547630
   24          0.787546000000        -0.006362463594
   25          0.368473000000        -0.000445945599
   26          0.154273000000        -0.000044476817
   27          0.061905000000        -0.000002848642
   28        193.775000000000        -0.000242338967
   29         17.550800000000        -0.029132922586
   30         10.195100000000         0.122593068093
   31          2.973770000000        -0.274024479100
   32          1.556470000000        -0.298010237130
   33          0.787546000000        -0.073628977929
   34          0.368473000000         0.559123996485
   35          0.154273000000         0.811455505903
   36          0.061905000000         0.335664205986
   37        193.775000000000         0.000968936319
   38         17.550800000000         0.116481253810
   39         10.195100000000        -0.490160032445
   40          2.973770000000         1.095623510007
   41          1.556470000000         1.191525016649
   42          0.787546000000         0.294388441140
   43          0.368473000000        -2.235527999431
 end
  // -----------------------------------------------
  // The basis set
  // -----------------------------------------------
  BAS[ATNO] = new BFNGauss[NSH];
  // Basis function   1 L = s
  InitBFNGauss(BAS[ATNO][  0]);
  BAS[ATNO][  0].l  = 0;
  BAS[ATNO][  0].ng = 22;
  BAS[ATNO][  0].a[  0] =      5324.980000000000;     BAS[ATNO][  0].d[  0] =         0.000189280699;
  BAS[ATNO][  0].a[  1] =       803.674000000000;     BAS[ATNO][  0].d[  1] =         0.001223331525;
  BAS[ATNO][  0].a[  2] =       175.146000000000;     BAS[ATNO][  0].d[  2] =         0.003563698983;
  BAS[ATNO][  0].a[  3] =        29.618200000000;     BAS[ATNO][  0].d[  3] =        -0.042189086767;
  BAS[ATNO][  0].a[  4] =        18.534400000000;     BAS[ATNO][  0].d[  4] =         0.230200784038;
  BAS[ATNO][  0].a[  5] =         7.961500000000;     BAS[ATNO][  0].d[  5] =        -0.699462181657;
  BAS[ATNO][  0].a[  6] =         2.065390000000;     BAS[ATNO][  0].d[  6] =         0.820056376538;
  BAS[ATNO][  0].a[  7] =         1.024570000000;     BAS[ATNO][  0].d[  7] =         0.427153431086;
  BAS[ATNO][  0].a[  8] =         0.072019000000;     BAS[ATNO][  0].d[  8] =         0.001016334864;
  BAS[ATNO][  0].a[  9] =      5324.980000000000;     BAS[ATNO][  0].d[  9] =         0.000026860299;
  BAS[ATNO][  0].a[ 10] =       803.674000000000;     BAS[ATNO][  0].d[ 10] =         0.000186000417;
  BAS[ATNO][  0].a[ 11] =       175.146000000000;     BAS[ATNO][  0].d[ 11] =         0.000467889269;
  BAS[ATNO][  0].a[ 12] =        29.618200000000;     BAS[ATNO][  0].d[ 12] =        -0.003551048428;
  BAS[ATNO][  0].a[ 13] =        18.534400000000;     BAS[ATNO][  0].d[ 13] =         0.025527691505;
  BAS[ATNO][  0].a[ 14] =         7.961500000000;     BAS[ATNO][  0].d[ 14] =        -0.091876699279;
  BAS[ATNO][  0].a[ 15] =         2.065390000000;     BAS[ATNO][  0].d[ 15] =         0.153299295258;
  BAS[ATNO][  0].a[ 16] =         1.024570000000;     BAS[ATNO][  0].d[ 16] =         0.114626514916;
  BAS[ATNO][  0].a[ 17] =         0.072019000000;     BAS[ATNO][  0].d[ 17] =        -0.045085751436;
  BAS[ATNO][  0].a[ 18] =         0.333843000000;     BAS[ATNO][  0].d[ 18] =        -0.374335773507;
  BAS[ATNO][  0].a[ 19] =         0.157811000000;     BAS[ATNO][  0].d[ 19] =         0.413930232579;
  BAS[ATNO][  0].a[ 20] =         0.088400000000;     BAS[ATNO][  0].d[ 20] =        -0.199997790986;
  BAS[ATNO][  0].a[ 21] =         0.035400000000;     BAS[ATNO][  0].d[ 21] =         0.052939652924;

FINAL SINGLE POINT ENERGY      -232.520697453581

DIPOLE MOMENT
-------------
                                X             Y             Z
Electronic contribution:     -0.00000      -0.00000       0.00000
Nuclear contribution   :      0.00000       0.00000       0.00000
                        -----------------------------------------
Total Dipole Moment    :     -0.00000      -0.00000       0.00000
                        -----------------------------------------
Magnitude (a.u.)       :      0.00000
Magnitude (Debye)      :      0.00000

Rotational constants in cm-1:     0.000000     0.000000     0.000000
Rotational constants in MHz :     0.000000     0.000000     0.000000

                             ****ORCA TERMINATED NORMALLY****
TOTAL RUN TIME: 0 days 0 hours 0 minutes 1 seconds 119 msec
