                         Program Version 4.2.0 -  RELEASE  -
|  1> #
|  2> # 52_Te CCSD(T)/aug-cc-pVTZ-PP
|  3> #
|  4> ! CCSD(T) aug-cc-pVTZ-PP tightscf
|  5>
|  6> *xyz 0 3
|  7>  Te 0.0 0.0 0.0
|  8> *
|  9>
| 10> %maxcore 5000
| 11>
| 12> %pal
| 13> nprocs 24
| 14> end
| 15>
| 16>
| 17>                          ****END OF INPUT****

CARTESIAN COORDINATES (ANGSTROEM)
---------------------------------
  Te     0.000000    0.000000    0.000000

 Total Charge           Charge          ....    0
 Multiplicity           Mult            ....    3
 Number of Electrons    NEL             ....   24
 Basis Dimension        Dim             ....   55

ORBITAL ENERGIES
----------------
                 SPIN UP ORBITALS
  NO   OCC          E(Eh)            E(eV)
   0   1.0000      -7.137289      -194.2155
   1   1.0000      -5.109475      -139.0359
   2   1.0000      -5.109475      -139.0359
   3   1.0000      -5.089302      -138.4870
   4   1.0000      -1.967908       -53.5495
   5   1.0000      -1.967908       -53.5495
   6   1.0000      -1.951518       -53.1035
   7   1.0000      -1.951518       -53.1035
   8   1.0000      -1.946178       -52.9582
   9   1.0000      -0.831516       -22.6267
  10   1.0000      -0.398604       -10.8466
  11   1.0000      -0.398604       -10.8466
  12   1.0000      -0.342692        -9.3251
  13   0.0000       0.061484         1.6731
  14   0.0000       0.081627         2.2212
  15   0.0000       0.081627         2.2212
  16   0.0000       0.089833         2.4445
  17   0.0000       0.150168         4.0863

                 SPIN DOWN ORBITALS
  NO   OCC          E(Eh)            E(eV)
   0   1.0000      -7.125366      -193.8911
   1   1.0000      -5.091978      -138.5598
   2   1.0000      -5.091978      -138.5598
   3   1.0000      -5.088358      -138.4613
   4   1.0000      -1.952821       -53.1390
   5   1.0000      -1.952821       -53.1390
   6   1.0000      -1.943753       -52.8922
   7   1.0000      -1.943753       -52.8922
   8   1.0000      -1.940897       -52.8145
   9   1.0000      -0.665986       -18.1224
  10   1.0000      -0.311880        -8.4867
  11   0.0000      -0.012861        -0.3500
  12   0.0000      -0.012861        -0.3500
  13   0.0000       0.068664         1.8684
  14   0.0000       0.091539         2.4909
  15   0.0000       0.102276         2.7831

E(0)                                       ...   -267.006367227
E(0)                                       ...   -267.006367227
E(CORR)                                    ...     -0.164767989
E(TOT)                                     ...   -267.171135216
E(CCSD(T))                                 ...   -267.176419035

MULLIKEN ATOMIC CHARGES AND SPIN DENSITIES
------------------------------------------
   0 Te:   -0.000000    2.000000
Sum of atomic charges       :   -0.0000000

LOEWDIN ATOMIC CHARGES AND SPIN DENSITIES
-----------------------------------------
   0 Te:   -0.000000    2.000000

FINAL SINGLE POINT ENERGY      -267.176419034610

DIPOLE MOMENT
-------------
                                X             Y             Z
Electronic contribution:      0.00000      -0.00000      -0.00000
Nuclear contribution   :      0.00000       0.00000       0.00000
                        -----------------------------------------
Total Dipole Moment    :      0.00000      -0.00000      -0.00000
                        -----------------------------------------
Magnitude (a.u.)       :      0.00000
Magnitude (Debye)      :      0.00000

Rotational constants in cm-1:     0.000000     0.000000     0.000000
Rotational constants in MHz :     0.000000     0.000000     0.000000

                             ****ORCA TERMINATED NORMALLY****
TOTAL RUN TIME: 0 days 0 hours 0 minutes 15 seconds 21 msec
