                         Program Version 4.2.0 -  RELEASE  -
|  1> #
|  2> # 53_I CCSD(T)/aug-cc-pVTZ-PP
|  3> #
|  4> ! CCSD(T) aug-cc-pVTZ-PP tightscf
|  5>
|  6> *xyz 0 2
|  7>  I 0.0 0.0 0.0
|  8> *
|  9>
| 10> %maxcore 5000
| 11>
| 12> %pal
| 13> nprocs 24
| 14> end
| 15>
| 16>
| 17>                          ****END OF INPUT****

CARTESIAN COORDINATES (ANGSTROEM)
---------------------------------
  I      0.000000    0.000000    0.000000

 Total Charge           Charge          ....    0
 Multiplicity           Mult            ....    2
 Number of Electrons    NEL             ....   25
 Basis Dimension        Dim             ....   55

ORBITAL ENERGIES
----------------
                 SPIN UP ORBITALS
  NO   OCC          E(Eh)            E(eV)
   0   1.0000      -7.749584      -210.8769
   1   1.0000      -5.590042      -152.1128
   2   1.0000      -5.566714      -151.4780
   3   1.0000      -5.566714      -151.4780
   4   1.0000      -2.313748       -62.9603
   5   1.0000      -2.307408       -62.7878
   6   1.0000      -2.307408       -62.7878
   7   1.0000      -2.288657       -62.2775
   8   1.0000      -2.288657       -62.2775
   9   1.0000      -0.922838       -25.1117
  10   1.0000      -0.460100       -12.5200
  11   1.0000      -0.399617       -10.8741
  12   1.0000      -0.399617       -10.8741
  13   0.0000       0.071915         1.9569
  14   0.0000       0.093857         2.5540
  15   0.0000       0.102533         2.7901
  16   0.0000       0.102533         2.7901
  17   0.0000       0.180082         4.9003

                 SPIN DOWN ORBITALS
  NO   OCC          E(Eh)            E(eV)
   0   1.0000      -7.741836      -210.6661
   1   1.0000      -5.568997      -151.5401
   2   1.0000      -5.565572      -151.4469
   3   1.0000      -5.565572      -151.4469
   4   1.0000      -2.301899       -62.6378
   5   1.0000      -2.298364       -62.5417
   6   1.0000      -2.298364       -62.5417
   7   1.0000      -2.288204       -62.2652
   8   1.0000      -2.288204       -62.2652
   9   1.0000      -0.833042       -22.6682
  10   1.0000      -0.382413       -10.4060
  11   1.0000      -0.382413       -10.4060
  12   0.0000      -0.052530        -1.4294
  13   0.0000       0.075618         2.0577
  14   0.0000       0.103417         2.8141
  15   0.0000       0.103417         2.8141
  16   0.0000       0.110639         3.0106

E(0)                                       ...   -294.661882575
E(0)                                       ...   -294.661882575
E(CORR)                                    ...     -0.197485807
E(TOT)                                     ...   -294.859368382
E(CCSD(T))                                 ...   -294.865412716

MULLIKEN ATOMIC CHARGES AND SPIN DENSITIES
------------------------------------------
   0 I :   -0.000000    1.000000
Sum of atomic charges       :   -0.0000000

LOEWDIN ATOMIC CHARGES AND SPIN DENSITIES
-----------------------------------------
   0 I :   -0.000000    1.000000

FINAL SINGLE POINT ENERGY      -294.865412716143

DIPOLE MOMENT
-------------
                                X             Y             Z
Electronic contribution:     -0.00000      -0.00000       0.00000
Nuclear contribution   :      0.00000       0.00000       0.00000
                        -----------------------------------------
Total Dipole Moment    :     -0.00000      -0.00000       0.00000
                        -----------------------------------------
Magnitude (a.u.)       :      0.00000
Magnitude (Debye)      :      0.00000

Rotational constants in cm-1:     0.000000     0.000000     0.000000
Rotational constants in MHz :     0.000000     0.000000     0.000000

                             ****ORCA TERMINATED NORMALLY****
TOTAL RUN TIME: 0 days 0 hours 0 minutes 15 seconds 461 msec
