                         Program Version 4.2.0 -  RELEASE  -
|  1> # input to generate an atomic fitting density for I
|  2> # this file is use internally by ORCA
|  3> #
|  4> # atomic ground state (S=2): 1s2 2s2 2p6 3s2 3p6 4s2 3d10 4p6 5s2 4d10 5p5
|  5> #
|  6> ! RHF AllowRHF def2-SVP def2/J  NoMulliken NoLoewdin NoMayer NoPrintMOs
|  7>
|  8> %output print[p_atomdensfit] 2 end
|  9>
| 10> %scf
| 11>   guess hcore
| 12>   maxiter 1000
| 13>   maxdisk 500000
| 14>   SCFMode Conventional
| 15>   lshift 1.000000
| 16>   hftyp rohf
| 17>   rohf_case sahf
| 18>   rohf_numop   2
| 19>   rohf_norb[1] 3
| 20>   rohf_nel[1]  5
| 21> end
| 22>
| 23> %basis
| 24>   NewECP 53
| 25>     N_core 28
| 26>     lmax g
| 27>     s 3
| 28>       1      40.0333760000     49.9896490000  2
| 29>       2      17.3005760000    281.0065560000  2
| 30>       3       8.8517200000     61.4167390000  2
| 31>     p 4
| 32>       1      15.7201410000     67.4162390000  2
| 33>       2      15.2082220000    134.8076960000  2
| 34>       3       8.2941860000     14.5665480000  2
| 35>       4       7.7539490000     28.9684220000  2
| 36>     d 4
| 37>       1      13.8177510000     35.5387560000  2
| 38>       2      13.5878050000     53.3397590000  2
| 39>       3       6.9476300000      9.7164660000  2
| 40>       4       6.9600990000     14.9775000000  2
| 41>     f 4
| 42>       1      18.5229500000    -20.1766180000  2
| 43>       2      18.2510350000    -26.0880770000  2
| 44>       3       7.5579010000     -0.2204340000  2
| 45>       4       7.5974040000     -0.2216460000  2
| 46>     g 1
| 47>       1       1.0000000000      0.0000000000  2
| 48>   end
| 49>   NewGTO 53
| 50>     s 9
| 51>      1    5546.5000000000      0.0001582783
| 52>      2     838.2140000000      0.0010004000
| 53>      3     182.1870000000      0.0028327758
| 54>      4      31.2123000000     -0.0438826597
| 55>      5      19.5314000000      0.2375534123
| 56>      6       8.2409900000     -0.7619101545
| 57>      7       2.1945500000      0.8958633149
| 58>      8       1.1091100000      0.4688091744
| 59>      9       0.0810610000      0.0011180942
| 60>     s 9
| 61>      1    5546.5000000000     -0.0000952468
| 62>      2     838.2140000000     -0.0006628134
| 63>      3     182.1870000000     -0.0015109013
| 64>      4      31.2123000000      0.0159088252
| 65>      5      19.5314000000     -0.1146275674
| 66>      6       8.2409900000      0.4412666843
| 67>      7       2.1945500000     -0.7522540119
| 68>      8       1.1091100000     -0.5340318490
| 69>      9       0.0810610000      0.1868807465
| 70>     s 1
| 71>      1       0.3746410000      1.0000000000
| 72>     s 1
| 73>      1       0.1770800000      1.0000000000
| 74>     s 1
| 75>      1       0.1001000000      1.0000000000
| 76>     s 1
| 77>      1       0.0412000000      1.0000000000
| 78>     p 9
| 79>      1     188.9880000000      0.0005850001
| 80>      2      21.2868000000      0.0369230042
| 81>      3      10.0396000000     -0.2353240265
| 82>      4       3.4518000000      0.3414830385
| 83>      5       1.9745600000      0.5347880603
| 84>      6       1.0242000000      0.2651410299
| 85>      7       0.4494370000      0.0257870029
| 86>      8       0.1866480000      0.0005220001
| 87>      9       0.0734810000      0.0006060001
| 88>     p 9
| 89>      1     188.9880000000     -0.0002559999
| 90>      2      21.2868000000     -0.0116819954
| 91>      3      10.0396000000      0.0831919674
| 92>      4       3.4518000000     -0.1569699385
| 93>      5       1.9745600000     -0.2245179120
| 94>      6       1.0242000000     -0.1144509551
| 95>      7       0.4494370000      0.3753558529
| 96>      8       0.1866480000      0.5751357746
| 97>      9       0.0734810000      0.2459169036
| 98>     p 1
| 99>      1       0.5981000000      1.0000000000
|100>     p 1
|101>      1       0.0961800000      1.0000000000
|102>     p 1
|103>      1       0.0359000000      1.0000000000
|104>   end
|105>   NewAuxGTO 53
|106>     S 1
|107>      1 1310.72 1.0
|108>     S 1
|109>      1  655.36 1.0
|110>     S 1
|111>      1  327.68 1.0
|112>     S 1
|113>      1  163.84 1.0
|114>     S 1
|115>      1   81.82 1.0
|116>     S 1
|117>      1   40.96 1.0
|118>     S 1
|119>      1   20.48 1.0
|120>     S 1
|121>      1   10.24 1.0
|122>     S 1
|123>      1    5.12 1.0
|124>     S 1
|125>      1    2.56 1.0
|126>     S 1
|127>      1    1.28 1.0
|128>     S 1
|129>      1    0.64 1.0
|130>     S 1
|131>      1    0.32 1.0
|132>     S 1
|133>      1    0.16 1.0
|134>     S 1
|135>      1    0.08 1.0
|136>     S 1
|137>      1    0.04 1.0
|138>     S 1
|139>      1    0.02 1.0
|140>     S 1
|141>      1    0.01 1.0
|142>   end
|143> end
|144>
|145> * xyz 0 2
|146> 53  0.0 0.0 0.0
|147> *
|148>
|149>
|150>                          ****END OF INPUT****

CARTESIAN COORDINATES (ANGSTROEM)
---------------------------------
  I      0.000000    0.000000    0.000000

 Total Charge           Charge          ....    0
 Multiplicity           Mult            ....    2
 Number of Electrons    NEL             ....   25
 Basis Dimension        Dim             ....   21

ORBITAL ENERGIES
----------------

  NO   OCC          E(Eh)            E(eV)
   0   2.0000     -13.133706      -357.3863
   1   2.0000     -10.631847      -289.3073
   2   2.0000     -10.631847      -289.3073
   3   2.0000     -10.629469      -289.2426
   4   2.0000      -3.530083       -96.0584
   5   2.0000      -2.582497       -70.2733
   6   2.0000      -2.582497       -70.2733
   7   2.0000      -2.576953       -70.1225
   8   2.0000      -0.731570       -19.9070
   9   2.0000      -0.412837       -11.2339
  10   1.6667      -0.418167       -11.3789
  11   1.6667      -0.418167       -11.3789
  12   1.6667      -0.072241        -1.9658
  13   0.0000       0.053273         1.4496
  14   0.0000       0.053273         1.4496
  15   0.0000       0.057090         1.5535
  16   0.0000       0.413396        11.2491
  17   0.0000       1.267044        34.4780

CleanUpVectors: The p-vectors have cracked symmetry
CleanUpVectors: The p-vectors have cracked symmetry
CleanUpVectors: The p-vectors have cracked symmetry
CleanUpVectors: The p-vectors have cracked symmetry
CleanUpVectors: The p-vectors have cracked symmetry
CleanUpVectors: The p-vectors have cracked symmetry
CleanUpVectors: The p-vectors have cracked symmetry
CleanUpVectors: The p-vectors have cracked symmetry
CleanUpVectors: The p-vectors have cracked symmetry
CleanUpVectors: The p-vectors have cracked symmetry
CleanUpVectors: The p-vectors have cracked symmetry
CleanUpVectors: The p-vectors have cracked symmetry
CleanUpVectors: The p-vectors have cracked symmetry
CleanUpVectors: The p-vectors have cracked symmetry
--------------------------
ATOM BASIS FOR ELEMENT I
--------------------------
 NewGTO I
 S 22
    1       5546.500000000000        -0.000145547107
    2        838.214000000000        -0.000919932336
    3        182.187000000000        -0.002604920091
    4         31.212300000000         0.040352936479
    5         19.531400000000        -0.218445687256
    6          8.240990000000         0.700625538129
    7          2.194550000000        -0.823804110478
    8          1.109110000000        -0.431100278890
    9          0.081061000000        -0.001028159746
   10       5546.500000000000        -0.000020192522
   11        838.214000000000        -0.000140517833
   12        182.187000000000        -0.000320314250
   13         31.212300000000         0.003372704364
   14         19.531400000000        -0.024301285098
   15          8.240990000000         0.093549464083
   16          2.194550000000        -0.159479430856
   17          1.109110000000        -0.113215873881
   18          0.081061000000         0.039619110857
   19          0.374641000000         0.369363233843
   20          0.177080000000        -0.410074571369
   21          0.100100000000         0.207114250810
   22          0.041200000000        -0.053526941528
 P 43
    1        188.988000000000        -0.000160284232
    2         21.286800000000        -0.010116537390
    3         10.039600000000         0.064476452134
    4          3.451800000000        -0.093562969807
    5          1.974560000000        -0.146526630895
    6          1.024200000000        -0.072646015697
    7          0.449437000000        -0.007065383348
    8          0.186648000000        -0.000143022856
    9          0.073481000000        -0.000166038024
   10        188.988000000000        -0.000510201068
   11         21.286800000000        -0.032201970853
   12         10.039600000000         0.205235126625
   13          3.451800000000        -0.297820480506
   14          1.974560000000        -0.466409218412
   15          1.024200000000        -0.231239681109
   16          0.449437000000        -0.022489836181
   17          0.186648000000        -0.000455256347
   18          0.073481000000        -0.000528515975
   19        188.988000000000         0.000465234722
   20         21.286800000000         0.029363864389
   21         10.039600000000        -0.187146819477
   22          3.451800000000         0.271572204127
   23          1.974560000000         0.425302448153
   24          1.024200000000         0.210859474048
   25          0.449437000000         0.020507704412
   26          0.186648000000         0.000415132530
   27          0.073481000000         0.000481935453
   28        188.988000000000         0.000008237087
   29         21.286800000000         0.000375881466
   30         10.039600000000        -0.002676796007
   31          3.451800000000         0.005050685995
   32          1.974560000000         0.007224118737
   33          1.024200000000         0.003682589428
   34          0.449437000000        -0.012077500747
   35          0.186648000000        -0.018505646558
   36          0.073481000000        -0.007912655588
   37        188.988000000000         0.000026219490
   38         21.286800000000         0.001196469062
   39         10.039600000000        -0.008520514845
   40          3.451800000000         0.016076848919
   41          1.974560000000         0.022995107122
   42          1.024200000000         0.011722057939
   43          0.449437000000        -0.038443917323
 S 22
    1       5546.500000000000         0.000056148431
    2        838.214000000000         0.000354886871
    3        182.187000000000         0.001004912975
    4         31.212300000000        -0.015567152930
    5         19.531400000000         0.084270878829
    6          8.240990000000        -0.270283797177
    7          2.194550000000         0.317803007444
    8          1.109110000000         0.166307697909
    9          0.081061000000         0.000396638297
   10       5546.500000000000        -0.000155621112
   11        838.214000000000        -0.001082952480
   12        182.187000000000        -0.002468619840
   13         31.212300000000         0.025992989434
   14         19.531400000000        -0.187286811617
   15          8.240990000000         0.720973429428
   16          2.194550000000        -1.229087021652
   17          1.109110000000        -0.872539866018
   18          0.081061000000         0.305339282325
   19          0.374641000000         2.814338655917
   20          0.177080000000        -2.040977131656
   21          0.100100000000         0.884105126997
   22          0.041200000000        -0.275633300856
 P 43
    1        188.988000000000         0.000157277862
    2         21.286800000000         0.009926786620
    3         10.039600000000        -0.063267099965
    4          3.451800000000         0.091808056552
    5          1.974560000000         0.143778305064
    6          1.024200000000         0.071283431160
    7          0.449437000000         0.006932861529
    8          0.186648000000         0.000140340249
    9          0.073481000000         0.000162923733
   10        188.988000000000         0.000293302808
   11         21.286800000000         0.018512169166
   12         10.039600000000        -0.117984933292
   13          3.451800000000         0.171210114483
   14          1.974560000000         0.268127885445
   15          1.024200000000         0.132934350950
   16          0.449437000000         0.012928887297
   17          0.186648000000         0.000261716357
   18          0.073481000000         0.000303831625
   19        188.988000000000        -0.000308718738
   20         21.286800000000        -0.019485164648
   21         10.039600000000         0.124186195065
   22          3.451800000000        -0.180208879906
   23          1.974560000000        -0.282220627288
   24          1.024200000000        -0.139921350780
   25          0.449437000000        -0.013608426729
   26          0.186648000000        -0.000275472111
   27          0.073481000000        -0.000319800947
   28        188.988000000000         0.000022988147
   29         21.286800000000         0.001049013788
   30         10.039600000000        -0.007470429309
   31          3.451800000000         0.014095505441
   32          1.974560000000         0.020161143468
   33          1.024200000000         0.010277407737
   34          0.449437000000        -0.033706010957
   35          0.186648000000        -0.051645745152
   36          0.073481000000        -0.022082719060
   37        188.988000000000         0.000042869911
   38         21.286800000000         0.001956274617
   39         10.039600000000        -0.013931381463
   40          3.451800000000         0.026286288926
   41          1.974560000000         0.037597916903
   42          1.024200000000         0.019166032059
   43          0.449437000000        -0.062857337486
 S 22
    1       5546.500000000000        -0.000076569241
    2        838.214000000000        -0.000483956859
    3        182.187000000000        -0.001370393121
    4         31.212300000000         0.021228822614
    5         19.531400000000        -0.114919635354
    6          8.240990000000         0.368584211356
    7          2.194550000000        -0.433385841434
    8          1.109110000000        -0.226792698328
    9          0.081061000000        -0.000540893000
   10       5546.500000000000         0.000119157642
   11        838.214000000000         0.000829206672
   12        182.187000000000         0.001890199321
   13         31.212300000000        -0.019902590985
   14         19.531400000000         0.143403775005
   15          8.240990000000        -0.552042669558
   16          2.194550000000         0.941100535550
   17          1.109110000000         0.668095684628
   18          0.081061000000        -0.233795457163
   19          0.374641000000        -5.407202379140
   20          0.177080000000        12.948628434389
   21          0.100100000000       -10.867878370247
   22          0.041200000000         2.918129101152
 P 43
    1        188.988000000000        -0.000371505932
    2         21.286800000000        -0.023448055991
    3         10.039600000000         0.149443174221
    4          3.451800000000        -0.216859748556
    5          1.974560000000        -0.339618637566
    6          1.024200000000        -0.168378544740
    7          0.449437000000        -0.016376107550
    8          0.186648000000        -0.000331497608
    9          0.073481000000        -0.000384842040
   10        188.988000000000         0.000255358698
   11         21.286800000000         0.016117279793
   12         10.039600000000        -0.102721413366
   13          3.451800000000         0.149060938982
   14          1.974560000000         0.233440614722
   15          1.024200000000         0.115736849049
   16          0.449437000000         0.011256298066
   17          0.186648000000         0.000227858536
   18          0.073481000000         0.000264525419
   19        188.988000000000         0.000053342290
   20         21.286800000000         0.003366764548
   21         10.039600000000        -0.021457641566
   22          3.451800000000         0.031137579745
   23          1.974560000000         0.048763786182
   24          1.024200000000         0.024176456899
   25          0.449437000000         0.002351346242
   26          0.186648000000         0.000047597737
   27          0.073481000000         0.000055257141
   28        188.988000000000        -0.000054300286
   29         21.286800000000        -0.002477874761
   30         10.039600000000         0.017645896039
   31          3.451800000000        -0.033294983910
   32          1.974560000000        -0.047622623409
   33          1.024200000000        -0.024276257894
   34          0.449437000000         0.079616945782
   35          0.186648000000         0.121992379844
   36          0.073481000000         0.052161575821
   37        188.988000000000         0.000037323900
   38         21.286800000000         0.001703194535
   39         10.039600000000        -0.012129101183
   40          3.451800000000         0.022885674258
   41          1.974560000000         0.032733935225
   42          1.024200000000         0.016686553502
   43          0.449437000000        -0.054725585436
 P 43
    1        188.988000000000         0.000093676728
    2         21.286800000000         0.005912522471
    3         10.039600000000        -0.037682702824
    4          3.451800000000         0.054682065620
    5          1.974560000000         0.085636217643
    6          1.024200000000         0.042457333340
    7          0.449437000000         0.004129301973
    8          0.186648000000         0.000083588467
    9          0.073481000000         0.000097039482
   10        188.988000000000        -0.000245563178
   11         21.286800000000        -0.015499023421
   12         10.039600000000         0.098781035761
   13          3.451800000000        -0.143342984308
   14          1.974560000000        -0.224485868676
   15          1.024200000000        -0.111297201335
   16          0.449437000000        -0.010824508205
   17          0.186648000000        -0.000219117917
   18          0.073481000000        -0.000254378265
   19        188.988000000000         0.000115695140
   20         21.286800000000         0.007302241748
   21         10.039600000000        -0.046539900205
   22          3.451800000000         0.067534908227
   23          1.974560000000         0.105764733534
   24          1.024200000000         0.052436792176
   25          0.449437000000         0.005099881042
   26          0.186648000000         0.000103235666
   27          0.073481000000         0.000119848299
   28        188.988000000000        -0.000018195703
   29         21.286800000000        -0.000830321108
   30         10.039600000000         0.005913034907
   31          3.451800000000        -0.011156951262
   32          1.974560000000        -0.015958058120
   33          1.024200000000        -0.008134829765
   34          0.449437000000         0.026679165430
   35          0.186648000000         0.040878921580
   36          0.073481000000         0.017479034102
   37        188.988000000000         0.000047698022
   38         21.286800000000         0.002176594908
   39         10.039600000000        -0.015500366715
   40          3.451800000000         0.029246713188
   41          1.974560000000         0.041832283560
   42          1.024200000000         0.021324556089
   43          0.449437000000        -0.069936480054
 P 43
    1        188.988000000000        -0.000043435302
    2         21.286800000000        -0.002741472757
    3         10.039600000000         0.017472424625
    4          3.451800000000        -0.025354557883
    5          1.974560000000        -0.039707140036
    6          1.024200000000        -0.019686288429
    7          0.449437000000        -0.001914642849
    8          0.186648000000        -0.000038757655
    9          0.073481000000        -0.000044994518
   10        188.988000000000         0.000035794737
   11         21.286800000000         0.002259229028
   12         10.039600000000        -0.014398906135
   13          3.451800000000         0.020894518470
   14          1.974560000000         0.032722383672
   15          1.024200000000         0.016223336218
   16          0.449437000000         0.001577844132
   17          0.186648000000         0.000031939919
   18          0.073481000000         0.000037079676
   19        188.988000000000         0.000002003121
   20         21.286800000000         0.000126429468
   21         10.039600000000        -0.000805781983
   22          3.451800000000         0.001169285109
   23          1.974560000000         0.001831188214
   24          1.024200000000         0.000907879523
   25          0.449437000000         0.000088298261
   26          0.186648000000         0.000001787400
   27          0.073481000000         0.000002075028
   28        188.988000000000        -0.000030135026
   29         21.286800000000        -0.001375146002
   30         10.039600000000         0.009792941830
   31          3.451800000000        -0.018477715154
   32          1.974560000000        -0.026429124357
   33          1.024200000000        -0.013472593336
   34          0.449437000000         0.044185011459
   35          0.186648000000         0.067702103470
   36          0.073481000000         0.028948106495
   37        188.988000000000         0.000024834070
   38         21.286800000000         0.001133248455
   39         10.039600000000        -0.008070296665
   40          3.451800000000         0.015227359213
   41          1.974560000000         0.021780061382
   42          1.024200000000         0.011102672411
   43          0.449437000000        -0.036412567013
 P 43
    1        188.988000000000         0.001006112690
    2         21.286800000000         0.063502045715
    3         10.039600000000        -0.404722134953
    4          3.451800000000         0.587299760452
    5          1.974560000000         0.919755490891
    6          1.024200000000         0.456002921932
    7          0.449437000000         0.044349788770
    8          0.186648000000         0.000897762112
    9          0.073481000000         0.001042229550
   10        188.988000000000         0.001144943043
   11         21.286800000000         0.072264494989
   12         10.039600000000        -0.460568480338
   13          3.451800000000         0.668339423060
   14          1.974560000000         1.046669683069
   15          1.024200000000         0.518925343207
   16          0.449437000000         0.050469477829
   17          0.186648000000         0.001021641506
   18          0.073481000000         0.001186043556
   19        188.988000000000        -0.001453575433
   20         21.286800000000        -0.091744209622
   21         10.039600000000         0.584719940429
   22          3.451800000000        -0.848497898403
   23          1.974560000000        -1.328811373030
   24          1.024200000000        -0.658807557877
   25          0.449437000000        -0.064074098271
   26          0.186648000000        -0.001297036567
   27          0.073481000000        -0.001505755055
   28        188.988000000000        -0.000732338503
   29         21.286800000000        -0.033418665489
   30         10.039600000000         0.237987127601
   31          3.451800000000        -0.449043651098
   32          1.974560000000        -0.642278030460
   33          1.024200000000        -0.327409663537
   34          0.449437000000         1.073779885867
   35          0.186648000000         1.645289987186
   36          0.073481000000         0.703494091381
   37        188.988000000000        -0.000833391609
   38         21.286800000000        -0.038030002932
   39         10.039600000000         0.270826229239
   40          3.451800000000        -0.511005784290
   41          1.974560000000        -0.730903973112
   42          1.024200000000        -0.372587902069
   43          0.449437000000         1.221947424023
 end
  // -----------------------------------------------
  // The basis set
  // -----------------------------------------------
  BAS[ATNO] = new BFNGauss[NSH];
  // Basis function   1 L = s
  InitBFNGauss(BAS[ATNO][  0]);
  BAS[ATNO][  0].l  = 0;
  BAS[ATNO][  0].ng = 22;
  BAS[ATNO][  0].a[  0] =      5546.500000000000;     BAS[ATNO][  0].d[  0] =         0.000145547107;
  BAS[ATNO][  0].a[  1] =       838.214000000000;     BAS[ATNO][  0].d[  1] =         0.000919932336;
  BAS[ATNO][  0].a[  2] =       182.187000000000;     BAS[ATNO][  0].d[  2] =         0.002604920091;
  BAS[ATNO][  0].a[  3] =        31.212300000000;     BAS[ATNO][  0].d[  3] =        -0.040352936479;
  BAS[ATNO][  0].a[  4] =        19.531400000000;     BAS[ATNO][  0].d[  4] =         0.218445687256;
  BAS[ATNO][  0].a[  5] =         8.240990000000;     BAS[ATNO][  0].d[  5] =        -0.700625538129;
  BAS[ATNO][  0].a[  6] =         2.194550000000;     BAS[ATNO][  0].d[  6] =         0.823804110478;
  BAS[ATNO][  0].a[  7] =         1.109110000000;     BAS[ATNO][  0].d[  7] =         0.431100278890;
  BAS[ATNO][  0].a[  8] =         0.081061000000;     BAS[ATNO][  0].d[  8] =         0.001028159746;
  BAS[ATNO][  0].a[  9] =      5546.500000000000;     BAS[ATNO][  0].d[  9] =         0.000020192522;
  BAS[ATNO][  0].a[ 10] =       838.214000000000;     BAS[ATNO][  0].d[ 10] =         0.000140517833;
  BAS[ATNO][  0].a[ 11] =       182.187000000000;     BAS[ATNO][  0].d[ 11] =         0.000320314250;
  BAS[ATNO][  0].a[ 12] =        31.212300000000;     BAS[ATNO][  0].d[ 12] =        -0.003372704364;
  BAS[ATNO][  0].a[ 13] =        19.531400000000;     BAS[ATNO][  0].d[ 13] =         0.024301285098;
  BAS[ATNO][  0].a[ 14] =         8.240990000000;     BAS[ATNO][  0].d[ 14] =        -0.093549464083;
  BAS[ATNO][  0].a[ 15] =         2.194550000000;     BAS[ATNO][  0].d[ 15] =         0.159479430856;
  BAS[ATNO][  0].a[ 16] =         1.109110000000;     BAS[ATNO][  0].d[ 16] =         0.113215873881;
  BAS[ATNO][  0].a[ 17] =         0.081061000000;     BAS[ATNO][  0].d[ 17] =        -0.039619110857;
  BAS[ATNO][  0].a[ 18] =         0.374641000000;     BAS[ATNO][  0].d[ 18] =        -0.369363233843;
  BAS[ATNO][  0].a[ 19] =         0.177080000000;     BAS[ATNO][  0].d[ 19] =         0.410074571369;
  BAS[ATNO][  0].a[ 20] =         0.100100000000;     BAS[ATNO][  0].d[ 20] =        -0.207114250810;
  BAS[ATNO][  0].a[ 21] =         0.041200000000;     BAS[ATNO][  0].d[ 21] =         0.053526941528;

FINAL SINGLE POINT ENERGY      -254.885503083125

DIPOLE MOMENT
-------------
                                X             Y             Z
Electronic contribution:     -0.00000      -0.00000       0.00000
Nuclear contribution   :      0.00000       0.00000       0.00000
                        -----------------------------------------
Total Dipole Moment    :     -0.00000      -0.00000       0.00000
                        -----------------------------------------
Magnitude (a.u.)       :      0.00000
Magnitude (Debye)      :      0.00000

Rotational constants in cm-1:     0.000000     0.000000     0.000000
Rotational constants in MHz :     0.000000     0.000000     0.000000

                             ****ORCA TERMINATED NORMALLY****
TOTAL RUN TIME: 0 days 0 hours 0 minutes 1 seconds 184 msec
