                         Program Version 4.2.0 -  RELEASE  -
|  1> #
|  2> # 54_Xe CCSD(T)/aug-cc-pVTZ-PP
|  3> #
|  4> ! CCSD(T) aug-cc-pVTZ-PP tightscf
|  5>
|  6> *xyz 0 1
|  7>  Xe 0.0 0.0 0.0
|  8> *
|  9>
| 10> %maxcore 5000
| 11>
| 12> %pal
| 13> nprocs 24
| 14> end
| 15>
| 16>
| 17>                          ****END OF INPUT****

CARTESIAN COORDINATES (ANGSTROEM)
---------------------------------
  Xe     0.000000    0.000000    0.000000

 Total Charge           Charge          ....    0
 Multiplicity           Mult            ....    1
 Number of Electrons    NEL             ....   26
 Basis Dimension        Dim             ....   55

ORBITAL ENERGIES
----------------

  NO   OCC          E(Eh)            E(eV)
   0   2.0000      -8.400162      -228.5800
   1   2.0000      -6.133865      -166.9110
   2   2.0000      -6.133865      -166.9110
   3   2.0000      -6.133865      -166.9110
   4   2.0000      -2.664217       -72.4970
   5   2.0000      -2.664217       -72.4970
   6   2.0000      -2.664217       -72.4970
   7   2.0000      -2.664217       -72.4970
   8   2.0000      -2.664217       -72.4970
   9   2.0000      -1.009739       -27.4764
  10   2.0000      -0.456336       -12.4175
  11   2.0000      -0.456336       -12.4175
  12   2.0000      -0.456336       -12.4175
  13   0.0000       0.084634         2.3030
  14   0.0000       0.118020         3.2115
  15   0.0000       0.118020         3.2115
  16   0.0000       0.118020         3.2115
  17   0.0000       0.218325         5.9409

E(0)                                       ...   -328.298669047
E(0)                                       ...   -328.298669047
E(CORR)                                    ...     -0.230834167
E(TOT)                                     ...   -328.529503214
E(CCSD(T))                                 ...   -328.536579941

MULLIKEN ATOMIC CHARGES
-----------------------
   0 Xe:   -0.000000
Sum of atomic charges:   -0.0000000

LOEWDIN ATOMIC CHARGES
----------------------
   0 Xe:   -0.000000

FINAL SINGLE POINT ENERGY      -328.536579940952

DIPOLE MOMENT
-------------
                                X             Y             Z
Electronic contribution:     -0.00000       0.00000      -0.00000
Nuclear contribution   :      0.00000       0.00000       0.00000
                        -----------------------------------------
Total Dipole Moment    :     -0.00000       0.00000      -0.00000
                        -----------------------------------------
Magnitude (a.u.)       :      0.00000
Magnitude (Debye)      :      0.00000

Rotational constants in cm-1:     0.000000     0.000000     0.000000
Rotational constants in MHz :     0.000000     0.000000     0.000000

                             ****ORCA TERMINATED NORMALLY****
TOTAL RUN TIME: 0 days 0 hours 0 minutes 9 seconds 731 msec
