                         Program Version 4.2.0 -  RELEASE  -
|  1> # input to generate an atomic fitting density for Xe
|  2> # this file is use internally by ORCA
|  3> #
|  4> # atomic ground state (S=1): 1s2 2s2 2p6 3s2 3p6 4s2 3d10 4p6 5s2 4d10 5p6
|  5> #
|  6> ! RHF AllowRHF def2-SVP def2/J  NoMulliken NoLoewdin NoMayer NoPrintMOs
|  7>
|  8> %output print[p_atomdensfit] 2 end
|  9>
| 10> %scf
| 11>   guess hcore
| 12>   maxiter 1000
| 13>   maxdisk 500000
| 14>   SCFMode Conventional
| 15>   lshift 1.000000
| 16>   hftyp rohf
| 17>   rohf_case sahf
| 18>   rohf_numop   2
| 19>   rohf_norb[1] 3
| 20>   rohf_nel[1]  6
| 21> end
| 22>
| 23> %basis
| 24>   NewECP 54
| 25>     N_core 28
| 26>     lmax g
| 27>     s 3
| 28>       1      40.0051840000     49.9979620000  2
| 29>       2      17.8122140000    281.0133030000  2
| 30>       3       9.3041500000     61.5382550000  2
| 31>     p 4
| 32>       1      15.7017720000     67.4391420000  2
| 33>       2      15.2586080000    134.8747110000  2
| 34>       3       9.2921840000     14.6633000000  2
| 35>       4       8.5590030000     29.3547300000  2
| 36>     d 6
| 37>       1      15.1856000000     35.4369080000  2
| 38>       2      14.2845000000     53.1957720000  2
| 39>       3       7.1218890000      9.0462320000  2
| 40>       4       6.9919630000     13.2236810000  2
| 41>       5       0.6239460000      0.0848530000  2
| 42>       6       0.6472840000      0.0441550000  2
| 43>     f 4
| 44>       1      20.8815570000    -23.0892950000  2
| 45>       2      20.7834430000    -30.0744750000  2
| 46>       3       5.2533890000     -0.2882270000  2
| 47>       4       5.3611880000     -0.3869240000  2
| 48>     g 1
| 49>       1       1.0000000000      0.0000000000  2
| 50>   end
| 51>   NewGTO 54
| 52>     s 9
| 53>      1    6456.4000000000      0.0002537351
| 54>      2     974.0610000000      0.0016543532
| 55>      3     214.4290000000      0.0048037138
| 56>      4      31.3308000000     -0.0342024831
| 57>      5      19.6130000000      0.2475754745
| 58>      6       8.8860900000     -0.7760773714
| 59>      7       2.3250800000      0.9142523990
| 60>      8       1.1842200000      0.4481094673
| 61>      9       0.0921780000      0.0008637144
| 62>     s 9
| 63>      1    6456.4000000000     -0.0001620048
| 64>      2     974.0610000000     -0.0011028786
| 65>      3     214.4290000000     -0.0029385171
| 66>      4      31.3308000000      0.0090859747
| 67>      5      19.6130000000     -0.1154458382
| 68>      6       8.8860900000      0.4408959544
| 69>      7       2.3250800000     -0.7674414721
| 70>      8       1.1842200000     -0.5147514322
| 71>      9       0.0921780000      0.1773790118
| 72>     s 1
| 73>      1       0.4268540000      1.0000000000
| 74>     s 1
| 75>      1       0.2016450000      1.0000000000
| 76>     s 1
| 77>      1       0.1143000000      1.0000000000
| 78>     s 1
| 79>      1       0.0476000000      1.0000000000
| 80>     p 9
| 81>      1     191.1700000000      0.0007649999
| 82>      2      22.5178000000      0.0369519962
| 83>      3      10.0604000000     -0.2806879708
| 84>      4       5.5576200000      0.1427169852
| 85>      5       2.6962500000      0.6356539339
| 86>      6       1.3076400000      0.3932569591
| 87>      7       0.5306750000      0.0410559957
| 88>      8       0.2224610000     -0.0022509998
| 89>      9       0.0868810000      0.0007739999
| 90>     p 9
| 91>      1     191.1700000000     -0.0003289999
| 92>      2      22.5178000000     -0.0127809966
| 93>      3      10.0604000000      0.1082739709
| 94>      4       5.5576200000     -0.0720509806
| 95>      5       2.6962500000     -0.2845799234
| 96>      6       1.3076400000     -0.1852049502
| 97>      7       0.5306750000      0.3583359036
| 98>      8       0.2224610000      0.5883938417
| 99>      9       0.0868810000      0.2572449308
|100>     p 1
|101>      1       0.6953000000      1.0000000000
|102>     p 1
|103>      1       0.1135000000      1.0000000000
|104>     p 1
|105>      1       0.0420000000      1.0000000000
|106>   end
|107>   NewAuxGTO 54
|108>     S 1
|109>      1 1310.72 1.0
|110>     S 1
|111>      1  655.36 1.0
|112>     S 1
|113>      1  327.68 1.0
|114>     S 1
|115>      1  163.84 1.0
|116>     S 1
|117>      1   81.82 1.0
|118>     S 1
|119>      1   40.96 1.0
|120>     S 1
|121>      1   20.48 1.0
|122>     S 1
|123>      1   10.24 1.0
|124>     S 1
|125>      1    5.12 1.0
|126>     S 1
|127>      1    2.56 1.0
|128>     S 1
|129>      1    1.28 1.0
|130>     S 1
|131>      1    0.64 1.0
|132>     S 1
|133>      1    0.32 1.0
|134>     S 1
|135>      1    0.16 1.0
|136>     S 1
|137>      1    0.08 1.0
|138>     S 1
|139>      1    0.04 1.0
|140>     S 1
|141>      1    0.02 1.0
|142>     S 1
|143>      1    0.01 1.0
|144>   end
|145> end
|146>
|147> * xyz 0 1
|148> 54  0.0 0.0 0.0
|149> *
|150>
|151>
|152>                          ****END OF INPUT****

CARTESIAN COORDINATES (ANGSTROEM)
---------------------------------
  Xe     0.000000    0.000000    0.000000

 Total Charge           Charge          ....    0
 Multiplicity           Mult            ....    1
 Number of Electrons    NEL             ....   26
 Basis Dimension        Dim             ....   21

ORBITAL ENERGIES
----------------

  NO   OCC          E(Eh)            E(eV)
   0   2.0000     -14.298721      -389.0880
   1   2.0000     -11.685234      -317.9714
   2   2.0000     -11.683940      -317.9362
   3   2.0000     -11.683940      -317.9362
   4   2.0000      -3.940192      -107.2181
   5   2.0000      -2.909276       -79.1654
   6   2.0000      -2.681333       -72.9628
   7   2.0000      -2.681333       -72.9628
   8   2.0000      -0.590063       -16.0564
   9   2.0000      -0.481714       -13.1081
  10   2.0000      -0.710951       -19.3460
  11   2.0000      -0.710951       -19.3460
  12   2.0000      -0.327859        -8.9215
  13   0.0000       0.091853         2.4994
  14   0.0000       0.091853         2.4994
  15   0.0000       0.091853         2.4994
  16   0.0000       0.507880        13.8201
  17   0.0000       1.675806        45.6010

CleanUpVectors: The p-vectors have cracked symmetry
CleanUpVectors: The p-vectors have cracked symmetry
CleanUpVectors: The p-vectors have cracked symmetry
CleanUpVectors: The p-vectors have cracked symmetry
CleanUpVectors: The p-vectors have cracked symmetry
CleanUpVectors: The p-vectors have cracked symmetry
CleanUpVectors: The p-vectors have cracked symmetry
CleanUpVectors: The p-vectors have cracked symmetry
CleanUpVectors: The p-vectors have cracked symmetry
--------------------------
ATOM BASIS FOR ELEMENT Xe
--------------------------
 NewGTO Xe
 S 22
    1       6456.400000000000        -0.000231066868
    2        974.061000000000        -0.001506556296
    3        214.429000000000        -0.004374558753
    4         31.330800000000         0.031146895513
    5         19.613000000000        -0.225457532229
    6          8.886090000000         0.706744031604
    7          2.325080000000        -0.832574753735
    8          1.184220000000        -0.408076183111
    9          0.092178000000        -0.000786551728
   10       6456.400000000000        -0.000037643453
   11        974.061000000000        -0.000256264994
   12        214.429000000000        -0.000682794160
   13         31.330800000000         0.002111218091
   14         19.613000000000        -0.026825007791
   15          8.886090000000         0.102446632951
   16          2.325080000000        -0.178322785726
   17          1.184220000000        -0.119607699979
   18          0.092178000000         0.041215806890
   19          0.426854000000         0.386834338559
   20          0.201645000000        -0.419274931171
   21          0.114300000000         0.208707340018
   22          0.047600000000        -0.052004096971
 P 43
    1        191.170000000000        -0.000018951091
    2         22.517800000000        -0.000915399672
    3         10.060400000000         0.006953390963
    4          5.557620000000        -0.003535481027
    5          2.696250000000        -0.015746846248
    6          1.307640000000        -0.009742025559
    7          0.530675000000        -0.001017066705
    8          0.222461000000         0.000055763279
    9          0.086881000000        -0.000019174045
   10        191.170000000000        -0.000028998208
   11         22.517800000000        -0.001400708235
   12         10.060400000000         0.010639802787
   13          5.557620000000        -0.005409852700
   14          2.696250000000        -0.024095198942
   15          1.307640000000        -0.014906860730
   16          0.530675000000        -0.001556275092
   17          0.222461000000         0.000085326756
   18          0.086881000000        -0.000029339363
   19        191.170000000000        -0.000931408385
   20         22.517800000000        -0.044990070091
   21         10.060400000000         0.341745312262
   22          5.557620000000        -0.173761848551
   23          2.696250000000        -0.773926119855
   24          1.307640000000        -0.478801146710
   25          0.530675000000        -0.049986802180
   26          0.222461000000         0.002740654070
   27          0.086881000000        -0.000942366133
   28        191.170000000000         0.000000848307
   29         22.517800000000         0.000032955047
   30         10.060400000000        -0.000279178056
   31          5.557620000000         0.000185779210
   32          2.696250000000         0.000733772570
   33          1.307640000000         0.000477540055
   34          0.530675000000        -0.000923948021
   35          0.222461000000        -0.001517138863
   36          0.086881000000        -0.000663290902
   37        191.170000000000         0.000001298045
   38         22.517800000000         0.000050426504
   39         10.060400000000        -0.000427187178
   40          5.557620000000         0.000284271971
   41          2.696250000000         0.001122789654
   42          1.307640000000         0.000730712833
   43          0.530675000000        -0.001413788578
 S 22
    1       6456.400000000000         0.000097006249
    2        974.061000000000         0.000632480875
    3        214.429000000000         0.001836522641
    4         31.330800000000        -0.013076056817
    5         19.613000000000         0.094651343344
    6          8.886090000000        -0.296704533799
    7          2.325080000000         0.349530654824
    8          1.184220000000         0.171318112711
    9          0.092178000000         0.000330209317
   10       6456.400000000000        -0.000280061872
   11        974.061000000000        -0.001906574652
   12        214.429000000000        -0.005079890224
   13         31.330800000000         0.015707158571
   14         19.613000000000        -0.199574195045
   15          8.886090000000         0.762188196386
   16          2.325080000000        -1.326695846525
   17          1.184220000000        -0.889864063801
   18          0.092178000000         0.306639668002
   19          0.426854000000         2.854038905707
   20          0.201645000000        -2.001003730147
   21          0.114300000000         0.856687345004
   22          0.047600000000        -0.261600304298
 P 43
    1        191.170000000000        -0.000011694502
    2         22.517800000000        -0.000564882660
    3         10.060400000000         0.004290857971
    4          5.557620000000        -0.002181704873
    5          2.696250000000        -0.009717198573
    6          1.307640000000        -0.006011692460
    7          0.530675000000        -0.000627620222
    8          0.222461000000         0.000034410881
    9          0.086881000000        -0.000011832084
   10        191.170000000000        -0.000017894462
   11         22.517800000000        -0.000864361019
   12         10.060400000000         0.006565700511
   13          5.557620000000        -0.003338358178
   14          2.696250000000        -0.014868871462
   15          1.307640000000        -0.009198853125
   16          0.530675000000        -0.000960359545
   17          0.222461000000         0.000052654164
   18          0.086881000000        -0.000018104985
   19        191.170000000000        -0.000574761453
   20         22.517800000000        -0.027762857272
   21         10.060400000000         0.210887120388
   22          5.557620000000        -0.107226447765
   23          2.696250000000        -0.477580949769
   24          1.307640000000        -0.295462707008
   25          0.530675000000        -0.030846283448
   26          0.222461000000         0.001691226255
   27          0.086881000000        -0.000581523354
   28        191.170000000000        -0.000002701458
   29         22.517800000000        -0.000104946292
   30         10.060400000000         0.000889050527
   31          5.557620000000        -0.000591619221
   32          2.696250000000        -0.002336719794
   33          1.307640000000        -0.001520740001
   34          0.530675000000         0.002942338970
   35          0.222461000000         0.004831372220
   36          0.086881000000         0.002112268899
   37        191.170000000000        -0.000004133663
   38         22.517800000000        -0.000160584649
   39         10.060400000000         0.001360389819
   40          5.557620000000        -0.000905272243
   41          2.696250000000        -0.003575555855
   42          1.307640000000        -0.002326975973
   43          0.530675000000         0.004502250274
 S 22
    1       6456.400000000000        -0.000136605408
    2        974.061000000000        -0.000890667447
    3        214.429000000000        -0.002586214061
    4         31.330800000000         0.018413866103
    5         19.613000000000        -0.133289200804
    6          8.886090000000         0.417823020655
    7          2.325080000000        -0.492213422358
    8          1.184220000000        -0.241252300494
    9          0.092178000000        -0.000465004873
   10       6456.400000000000         0.000223680039
   11        974.061000000000         0.001522744560
   12        214.429000000000         0.004057210764
   13         31.330800000000        -0.012545005900
   14         19.613000000000         0.159396076833
   15          8.886090000000        -0.608745074908
   16          2.325080000000         1.059606493910
   17          1.184220000000         0.710717338243
   18          0.092178000000        -0.244907213930
   19          0.426854000000        -5.618949581885
   20          0.201645000000        13.274346912794
   21          0.114300000000       -11.134283011841
   22          0.047600000000         3.002256646624
 S 22
    1       6456.400000000000        -0.001576118083
    2        974.061000000000        -0.010276292065
    3        214.429000000000        -0.029839073062
    4         31.330800000000         0.212454453908
    5         19.613000000000        -1.537856537552
    6          8.886090000000         4.820734613007
    7          2.325080000000        -5.679031946175
    8          1.184220000000        -2.783507030404
    9          0.092178000000        -0.005365106698
   10       6456.400000000000         0.000928742407
   11        974.061000000000         0.006322591217
   12        214.429000000000         0.016845954220
   13         31.330800000000        -0.052088148081
   14         19.613000000000         0.661828820139
   15          8.886090000000        -2.527571836754
   16          2.325080000000         4.399594579807
   17          1.184220000000         2.950971107748
   18          0.092178000000        -1.016879810719
   19          0.426854000000         1.027669427901
   20          0.201645000000        -1.742581923282
   21          0.114300000000         2.078066258150
   22          0.047600000000        -0.056453551717
 P 43
    1        191.170000000000        -0.000643931143
    2         22.517800000000        -0.031103979416
    3         10.060400000000         0.236266339138
    4          5.557620000000        -0.120130618814
    5          2.696250000000        -0.535055447845
    6          1.307640000000        -0.331020178037
    7          0.530675000000        -0.034558480636
    8          0.222461000000         0.001894756945
    9          0.086881000000        -0.000651506804
   10        191.170000000000         0.000130912546
   11         22.517800000000         0.006323503991
   12         10.060400000000        -0.048033440304
   13          5.557620000000         0.024422805756
   14          2.696250000000         0.108777890270
   15          1.307640000000         0.067297093692
   16          0.530675000000         0.007025811306
   17          0.222461000000        -0.000385208045
   18          0.086881000000         0.000132452694
   19        191.170000000000         0.000009026082
   20         22.517800000000         0.000435989284
   21         10.060400000000        -0.003311781771
   22          5.557620000000         0.001683889440
   23          2.696250000000         0.007499954861
   24          1.307640000000         0.004639960968
   25          0.530675000000         0.000484411561
   26          0.222461000000        -0.000026559101
   27          0.086881000000         0.000009132272
   28        191.170000000000        -0.000116504180
   29         22.517800000000        -0.004525957376
   30         10.060400000000         0.038341562290
   31          5.557620000000        -0.025514416233
   32          2.696250000000        -0.100774348338
   33          1.307640000000        -0.065584064899
   34          0.530675000000         0.126892532474
   35          0.222461000000         0.208359765000
   36          0.086881000000         0.091094585854
   37        191.170000000000         0.000023685543
   38         22.517800000000         0.000920136589
   39         10.060400000000        -0.007794919708
   40          5.557620000000         0.005187134119
   41          2.696250000000         0.020487635533
   42          1.307640000000         0.013333377398
   43          0.530675000000        -0.025797516929
 P 43
    1        191.170000000000        -0.000053510746
    2         22.517800000000        -0.002584743974
    3         10.060400000000         0.019633757734
    4          5.557620000000        -0.009982867110
    5          2.696250000000        -0.044463164222
    6          1.307640000000        -0.027507811753
    7          0.530675000000        -0.002871813391
    8          0.222461000000         0.000157454502
    9          0.086881000000        -0.000054140284
   10        191.170000000000        -0.000142009938
   11         22.517800000000        -0.006859544267
   12         10.060400000000         0.052105211055
   13          5.557620000000        -0.026493114806
   14          2.696250000000        -0.117998937715
   15          1.307640000000        -0.073001834722
   16          0.530675000000        -0.007621385822
   17          0.222461000000         0.000417861939
   18          0.086881000000        -0.000143680643
   19        191.170000000000         0.000005510065
   20         22.517800000000         0.000266154151
   21         10.060400000000        -0.002021711312
   22          5.557620000000         0.001027947662
   23          2.696250000000         0.004578424735
   24          1.307640000000         0.002832511989
   25          0.530675000000         0.000295714030
   26          0.222461000000        -0.000016213277
   27          0.086881000000         0.000005574889
   28        191.170000000000         0.000022445098
   29         22.517800000000         0.000871947743
   30         10.060400000000        -0.007386688809
   31          5.557620000000         0.004915476616
   32          2.696250000000         0.019414669270
   33          1.307640000000         0.012635089687
   34          0.530675000000        -0.024446464715
   35          0.222461000000        -0.040141524042
   36          0.086881000000        -0.017549815859
   37        191.170000000000         0.000059566110
   38         22.517800000000         0.002314025761
   39         10.060400000000        -0.019603225456
   40          5.557620000000         0.013044978450
   41          2.696250000000         0.051523781315
   42          1.307640000000         0.033531737722
   43          0.530675000000        -0.064877453454
 P 21
    1        191.170000000000        -0.000069378203
    2         22.517800000000        -0.003351194032
    3         10.060400000000         0.025455724979
    4          5.557620000000        -0.012943070965
    5          2.696250000000        -0.057647756251
    6          1.307640000000        -0.035664659830
    7          0.530675000000        -0.003723387690
    8          0.222461000000         0.000204144238
    9          0.086881000000        -0.000070194417
   10        191.170000000000        -0.000066395471
   11         22.517800000000        -0.002579332957
   12         10.060400000000         0.021850770345
   13          5.557620000000        -0.014540608580
   14          2.696250000000        -0.057431075072
   15          1.307640000000        -0.037376211476
   16          0.530675000000         0.072315769626
   17          0.222461000000         0.118743762705
   18          0.086881000000         0.051914600146
   19          0.695300000000         0.334501430077
   20          0.113500000000        -1.444012382700
   21          0.042000000000         1.581917098287
 P 21
    1        191.170000000000        -0.003017328886
    2         22.517800000000        -0.145746849795
    3         10.060400000000         1.107095467809
    4          5.557620000000        -0.562907370216
    5          2.696250000000        -2.507159773573
    6          1.307640000000        -1.551092467066
    7          0.530675000000        -0.161933931961
    8          0.222461000000         0.008878441315
    9          0.086881000000        -0.003052826877
   10        191.170000000000         0.002003753944
   11         22.517800000000         0.077841884909
   12         10.060400000000        -0.659436055354
   13          5.557620000000         0.438822129052
   14          2.696250000000         1.733216770012
   15          1.307640000000         1.127979520624
   16          0.530675000000        -2.182423095757
   17          0.222461000000        -3.583577019848
   18          0.086881000000        -1.566734654843
   19          0.695300000000         4.211888408683
   20          0.113500000000         4.887078555858
   21          0.042000000000        -0.721983362653
 end
  // -----------------------------------------------
  // The basis set
  // -----------------------------------------------
  BAS[ATNO] = new BFNGauss[NSH];
  // Basis function   1 L = s
  InitBFNGauss(BAS[ATNO][  0]);
  BAS[ATNO][  0].l  = 0;
  BAS[ATNO][  0].ng = 22;
  BAS[ATNO][  0].a[  0] =      6456.400000000000;     BAS[ATNO][  0].d[  0] =         0.000231066868;
  BAS[ATNO][  0].a[  1] =       974.061000000000;     BAS[ATNO][  0].d[  1] =         0.001506556296;
  BAS[ATNO][  0].a[  2] =       214.429000000000;     BAS[ATNO][  0].d[  2] =         0.004374558753;
  BAS[ATNO][  0].a[  3] =        31.330800000000;     BAS[ATNO][  0].d[  3] =        -0.031146895513;
  BAS[ATNO][  0].a[  4] =        19.613000000000;     BAS[ATNO][  0].d[  4] =         0.225457532229;
  BAS[ATNO][  0].a[  5] =         8.886090000000;     BAS[ATNO][  0].d[  5] =        -0.706744031604;
  BAS[ATNO][  0].a[  6] =         2.325080000000;     BAS[ATNO][  0].d[  6] =         0.832574753735;
  BAS[ATNO][  0].a[  7] =         1.184220000000;     BAS[ATNO][  0].d[  7] =         0.408076183111;
  BAS[ATNO][  0].a[  8] =         0.092178000000;     BAS[ATNO][  0].d[  8] =         0.000786551728;
  BAS[ATNO][  0].a[  9] =      6456.400000000000;     BAS[ATNO][  0].d[  9] =         0.000037643453;
  BAS[ATNO][  0].a[ 10] =       974.061000000000;     BAS[ATNO][  0].d[ 10] =         0.000256264994;
  BAS[ATNO][  0].a[ 11] =       214.429000000000;     BAS[ATNO][  0].d[ 11] =         0.000682794160;
  BAS[ATNO][  0].a[ 12] =        31.330800000000;     BAS[ATNO][  0].d[ 12] =        -0.002111218091;
  BAS[ATNO][  0].a[ 13] =        19.613000000000;     BAS[ATNO][  0].d[ 13] =         0.026825007791;
  BAS[ATNO][  0].a[ 14] =         8.886090000000;     BAS[ATNO][  0].d[ 14] =        -0.102446632951;
  BAS[ATNO][  0].a[ 15] =         2.325080000000;     BAS[ATNO][  0].d[ 15] =         0.178322785726;
  BAS[ATNO][  0].a[ 16] =         1.184220000000;     BAS[ATNO][  0].d[ 16] =         0.119607699979;
  BAS[ATNO][  0].a[ 17] =         0.092178000000;     BAS[ATNO][  0].d[ 17] =        -0.041215806890;
  BAS[ATNO][  0].a[ 18] =         0.426854000000;     BAS[ATNO][  0].d[ 18] =        -0.386834338559;
  BAS[ATNO][  0].a[ 19] =         0.201645000000;     BAS[ATNO][  0].d[ 19] =         0.419274931171;
  BAS[ATNO][  0].a[ 20] =         0.114300000000;     BAS[ATNO][  0].d[ 20] =        -0.208707340018;
  BAS[ATNO][  0].a[ 21] =         0.047600000000;     BAS[ATNO][  0].d[ 21] =         0.052004096971;

FINAL SINGLE POINT ENERGY      -281.527961087103

DIPOLE MOMENT
-------------
                                X             Y             Z
Electronic contribution:     -0.00000       0.00000       0.00000
Nuclear contribution   :      0.00000       0.00000       0.00000
                        -----------------------------------------
Total Dipole Moment    :     -0.00000       0.00000       0.00000
                        -----------------------------------------
Magnitude (a.u.)       :      0.00000
Magnitude (Debye)      :      0.00000

Rotational constants in cm-1:     0.000000     0.000000     0.000000
Rotational constants in MHz :     0.000000     0.000000     0.000000

                             ****ORCA TERMINATED NORMALLY****
TOTAL RUN TIME: 0 days 0 hours 0 minutes 1 seconds 44 msec
