                         Program Version 4.2.0 -  RELEASE  -
|  1> # input to generate an atomic fitting density for Ba
|  2> # this file is use internally by ORCA
|  3> #
|  4> # atomic ground state (S=1): 1s2 2s2 2p6 3s2 3p6 4s2 3d10 4p6 5s2 4d10 5p6 6s2
|  5> #
|  6> ! RHF AllowRHF def2-SVP def2/J  NoMulliken NoLoewdin NoMayer NoPrintMOs
|  7>
|  8> %output print[p_atomdensfit] 2 end
|  9>
| 10> %scf
| 11>   guess hcore
| 12>   maxiter 1000
| 13>   maxdisk 500000
| 14>   SCFMode Conventional
| 15>   lshift 1.000000
| 16>   hftyp rohf
| 17>   rohf_case sahf
| 18>   rohf_numop   2
| 19>   rohf_norb[1] 1
| 20>   rohf_nel[1]  2
| 21> end
| 22>
| 23> %basis
| 24>   NewECP 56
| 25>     N_core 46
| 26>     lmax h
| 27>     s 2
| 28>       1       4.1779316000     84.7854576000  2
| 29>       2       2.5226328000     17.3727090000  2
| 30>     p 4
| 31>       1       6.2941194000     52.5122257000  2
| 32>       2       6.4764577000    105.0226686000  2
| 33>       3       2.2843266000      8.7070149000  2
| 34>       4       2.0915552000     17.1654588000  2
| 35>     d 4
| 36>       1       1.9252917000      5.3465357000  2
| 37>       2       1.8785341000      8.0257207000  2
| 38>       3       0.9070887000      1.3462951000  2
| 39>       4       0.9100610000      2.0637105000  2
| 40>     f 4
| 41>       1       6.2563217000    -20.0032235000  2
| 42>       2       6.1341358000    -26.1182147000  2
| 43>       3       1.6413828000     -2.3444580000  2
| 44>       4       1.5993433000     -2.9808675000  2
| 45>     g 2
| 46>       1       2.1423810000     -3.3166028000  2
| 47>       2       2.1599811000     -4.2756470000  2
| 48>     h 1
| 49>       1       1.0000000000      0.0000000000  2
| 50>   end
| 51>   NewGTO 56
| 52>     s 8
| 53>      1      13.6340000000      0.0094253850
| 54>      2       7.6769600000     -0.0983597668
| 55>      3       4.7781600000      0.3013201312
| 56>      4       1.9210800000     -0.6927220204
| 57>      5       1.1833400000     -0.0771368703
| 58>      6       0.4610120000      0.8436523863
| 59>      7       0.2200010000      0.5123467437
| 60>      8       0.0345510000     -0.0119003376
| 61>     s 8
| 62>      1      13.6340000000     -0.0043059891
| 63>      2       7.6769600000      0.0483584357
| 64>      3       4.7781600000     -0.1564209086
| 65>      4       1.9210800000      0.4033134485
| 66>      5       1.1833400000      0.0118058460
| 67>      6       0.4610120000     -0.5546667533
| 68>      7       0.2200010000     -0.6686698205
| 69>      8       0.0345510000      1.0287857962
| 70>     s 1
| 71>      1       0.0592070000      1.0000000000
| 72>     s 1
| 73>      1       0.0166800000      1.0000000000
| 74>     s 1
| 75>      1       0.0081000000      1.0000000000
| 76>     p 7
| 77>      1      12.5378000000     -0.0041212982
| 78>      2       7.8361900000      0.0180287618
| 79>      3       1.9247600000     -0.2225807912
| 80>      4       0.6004700000      0.4105893221
| 81>      5       0.3170870000      0.5069524144
| 82>      6       0.1669980000      0.2392173746
| 83>      7       0.0359310000      0.0020867333
| 84>     p 7
| 85>      1      12.5378000000      0.0013797136
| 86>      2       7.8361900000     -0.0069399914
| 87>      3       1.9247600000      0.0965273778
| 88>      4       0.6004700000     -0.2028800372
| 89>      5       0.3170870000     -0.2489459029
| 90>      6       0.1669980000     -0.2632783552
| 91>      7       0.0359310000      1.0413253134
| 92>     p 1
| 93>      1       0.0811850000      1.0000000000
| 94>     p 1
| 95>      1       0.0158500000      1.0000000000
| 96>     p 1
| 97>      1       0.0070000000      1.0000000000
| 98>   end
| 99>   NewAuxGTO 56
|100>     S 1
|101>      1 1310.72 1.0
|102>     S 1
|103>      1  655.36 1.0
|104>     S 1
|105>      1  327.68 1.0
|106>     S 1
|107>      1  163.84 1.0
|108>     S 1
|109>      1   81.82 1.0
|110>     S 1
|111>      1   40.96 1.0
|112>     S 1
|113>      1   20.48 1.0
|114>     S 1
|115>      1   10.24 1.0
|116>     S 1
|117>      1    5.12 1.0
|118>     S 1
|119>      1    2.56 1.0
|120>     S 1
|121>      1    1.28 1.0
|122>     S 1
|123>      1    0.64 1.0
|124>     S 1
|125>      1    0.32 1.0
|126>     S 1
|127>      1    0.16 1.0
|128>     S 1
|129>      1    0.08 1.0
|130>     S 1
|131>      1    0.04 1.0
|132>     S 1
|133>      1    0.02 1.0
|134>     S 1
|135>      1    0.01 1.0
|136>   end
|137> end
|138>
|139> * xyz 0 1
|140> 56  0.0 0.0 0.0
|141> *
|142>
|143>
|144>                          ****END OF INPUT****

CARTESIAN COORDINATES (ANGSTROEM)
---------------------------------
  Ba     0.000000    0.000000    0.000000

 Total Charge           Charge          ....    0
 Multiplicity           Mult            ....    1
 Number of Electrons    NEL             ....   10
 Basis Dimension        Dim             ....   20

ORBITAL ENERGIES
----------------

  NO   OCC          E(Eh)            E(eV)
   0   2.0000      -1.584396       -43.1136
   1   2.0000      -0.896786       -24.4028
   2   2.0000      -0.896786       -24.4028
   3   2.0000      -0.896786       -24.4028
   4   2.0000      -0.183437        -4.9916
   5   0.0000       0.008027         0.2184
   6   0.0000       0.008027         0.2184
   7   0.0000       0.008027         0.2184
   8   0.0000       0.019851         0.5402
   9   0.0000       0.032719         0.8903

--------------------------
ATOM BASIS FOR ELEMENT Ba
--------------------------
 NewGTO Ba
 S 19
    1         13.634000000000        -0.009191975922
    2          7.676960000000         0.095923997599
    3          4.778160000000        -0.293858276428
    4          1.921080000000         0.675567537251
    5          1.183340000000         0.075226662305
    6          0.461012000000        -0.822760282081
    7          0.220001000000        -0.499659051779
    8          0.034551000000         0.011605639099
    9         13.634000000000        -0.000312700470
   10          7.676960000000         0.003511784455
   11          4.778160000000        -0.011359269740
   12          1.921080000000         0.029288579719
   13          1.183340000000         0.000857339280
   14          0.461012000000        -0.040279840610
   15          0.220001000000        -0.048558731221
   16          0.034551000000         0.074710315061
   17          0.059207000000         0.009109736131
   18          0.016680000000         0.033571468707
   19          0.008100000000         0.000301194458
 S 19
    1         13.634000000000         0.001099015833
    2          7.676960000000        -0.011468915175
    3          4.778160000000         0.035134436953
    4          1.921080000000        -0.080772559254
    5          1.183340000000        -0.008994289547
    6          0.461012000000         0.098371295202
    7          0.220001000000         0.059740496902
    8          0.034551000000        -0.001387599492
    9         13.634000000000        -0.002611696469
   10          7.676960000000         0.029330672428
   11          4.778160000000        -0.094873425178
   12          1.921080000000         0.244620291635
   13          1.183340000000         0.007160558375
   14          0.461012000000        -0.336420080850
   15          0.220001000000        -0.405565961429
   16          0.034551000000         0.623985841365
   17          0.059207000000         0.290252340449
   18          0.016680000000         0.304274235753
   19          0.008100000000        -0.001107654657
 S 19
    1         13.634000000000        -0.000157231097
    2          7.676960000000         0.001640804491
    3          4.778160000000        -0.005026520909
    4          1.921080000000         0.011555755355
    5          1.183340000000         0.001286771282
    6          0.461012000000        -0.014073524868
    7          0.220001000000        -0.008546795760
    8          0.034551000000         0.000198517422
    9         13.634000000000        -0.000471247613
   10          7.676960000000         0.005292349068
   11          4.778160000000        -0.017118710270
   12          1.921080000000         0.044138639358
   13          1.183340000000         0.001292032242
   14          0.461012000000        -0.060702750872
   15          0.220001000000        -0.073179250943
   16          0.034551000000         0.112590357212
   17          0.059207000000        -0.171614518101
   18          0.016680000000         2.062590548779
   19          0.008100000000        -2.443358777248
 S 19
    1         13.634000000000         0.002059327254
    2          7.676960000000        -0.021490363359
    3          4.778160000000         0.065834632569
    4          1.921080000000        -0.151350988412
    5          1.183340000000        -0.016853429253
    6          0.461012000000         0.184327361889
    7          0.220001000000         0.111941274833
    8          0.034551000000        -0.002600073053
    9         13.634000000000        -0.004722850776
   10          7.676960000000         0.053040003188
   11          4.778160000000        -0.171563975772
   12          1.921080000000         0.442358117762
   13          1.183340000000         0.012948766858
   14          0.461012000000        -0.608363896338
   15          0.220001000000        -0.733403570599
   16          0.034551000000         1.128382279539
   17          0.059207000000         1.921598564326
   18          0.016680000000        -4.299317457098
   19          0.008100000000         2.087443744250
 S 19
    1         13.634000000000        -0.057084791159
    2          7.676960000000         0.595715373558
    3          4.778160000000        -1.824943677260
    4          1.921080000000         4.195467014412
    5          1.183340000000         0.467179020456
    6          0.461012000000        -5.109575925286
    7          0.220001000000        -3.103025167142
    8          0.034551000000         0.072074327639
    9         13.634000000000         0.024651714112
   10          7.676960000000        -0.276851219099
   11          4.778160000000         0.895507032262
   12          1.921080000000        -2.308962609732
   13          1.183340000000        -0.067588266872
   14          0.461012000000         3.175457696723
   15          0.220001000000         3.828123310871
   16          0.034551000000        -5.889781126029
   17          0.059207000000         3.306409702121
   18          0.016680000000         4.091168131269
   19          0.008100000000        -1.388094568235
 P 17
    1         12.537800000000         0.004028490781
    2          7.836190000000        -0.017622772529
    3          1.924760000000         0.217568499502
    4          0.600470000000        -0.401343270635
    5          0.317087000000        -0.495536364685
    6          0.166998000000        -0.233830444064
    7          0.035931000000        -0.002039742201
    8         12.537800000000         0.000000214252
    9          7.836190000000        -0.000001077690
   10          1.924760000000         0.000014989445
   11          0.600470000000        -0.000031504628
   12          0.317087000000        -0.000038658057
   13          0.166998000000        -0.000040883700
   14          0.035931000000         0.000161704262
   15          0.081185000000        -0.035602160963
   16          0.015850000000        -0.000499668794
   17          0.007000000000         0.000113276193
 P 17
    1         12.537800000000        -0.000026604612
    2          7.836190000000         0.000116382796
    3          1.924760000000        -0.001436847143
    4          0.600470000000         0.002650516656
    5          0.317087000000         0.003272578574
    6          0.166998000000         0.001544242876
    7          0.035931000000         0.000013470690
    8         12.537800000000         0.000365492188
    9          7.836190000000        -0.001838434179
   10          1.924760000000         0.025570525999
   11          0.600470000000        -0.053743812212
   12          0.317087000000        -0.065946862201
   13          0.166998000000        -0.069743591714
   14          0.035931000000         0.275851645474
   15          0.081185000000         0.040718610460
   16          0.015850000000        -0.125344737981
   17          0.007000000000         0.953960391256
 P 17
    1         12.537800000000         0.000871459264
    2          7.836190000000        -0.003812228753
    3          1.924760000000         0.047065289424
    4          0.600470000000        -0.086820184145
    5          0.317087000000        -0.107196411601
    6          0.166998000000        -0.050583138420
    7          0.035931000000        -0.000441245204
    8         12.537800000000        -0.000053183182
    9          7.836190000000         0.000267512639
   10          1.924760000000        -0.003720796192
   11          0.600470000000         0.007820322971
   12          0.317087000000         0.009596002593
   13          0.166998000000         0.010148469003
   14          0.035931000000        -0.040139485289
   15          0.081185000000         0.045025257843
   16          0.015850000000         1.752310393136
   17          0.007000000000        -1.550877522070
 P 17
    1         12.537800000000        -0.002929799084
    2          7.836190000000         0.012816507625
    3          1.924760000000        -0.158230966673
    4          0.600470000000         0.291884780314
    5          0.317087000000         0.360388558938
    6          0.166998000000         0.170057785418
    7          0.035931000000         0.001483442598
    8         12.537800000000         0.002744731129
    9          7.836190000000        -0.013806061222
   10          1.924760000000         0.192026590630
   11          0.600470000000        -0.403599090106
   12          0.317087000000        -0.495240149217
   13          0.166998000000        -0.523752391166
   14          0.035931000000         2.071558911329
   15          0.081185000000         0.286782640585
   16          0.015850000000        -2.777375368952
   17          0.007000000000         1.143243572572
 P 17
    1         12.537800000000         0.012318509825
    2          7.836190000000        -0.053887748128
    3          1.924760000000         0.665291257793
    4          0.600470000000        -1.227246453135
    5          0.317087000000        -1.515274555360
    6          0.166998000000        -0.715017801741
    7          0.035931000000        -0.006237220267
    8         12.537800000000        -0.004881651175
    9          7.836190000000         0.024554818601
   10          1.924760000000        -0.341529566150
   11          0.600470000000         0.717822577021
   12          0.317087000000         0.880811104063
   13          0.166998000000         0.931521651966
   14          0.035931000000        -3.684378366143
   15          0.081185000000         2.648776776347
   16          0.015850000000         2.517300938438
   17          0.007000000000        -0.874326607540
 end
  // -----------------------------------------------
  // The basis set
  // -----------------------------------------------
  BAS[ATNO] = new BFNGauss[NSH];
  // Basis function   1 L = s
  InitBFNGauss(BAS[ATNO][  0]);
  BAS[ATNO][  0].l  = 0;
  BAS[ATNO][  0].ng = 19;
  BAS[ATNO][  0].a[  0] =        13.634000000000;     BAS[ATNO][  0].d[  0] =         0.009191975922;
  BAS[ATNO][  0].a[  1] =         7.676960000000;     BAS[ATNO][  0].d[  1] =        -0.095923997599;
  BAS[ATNO][  0].a[  2] =         4.778160000000;     BAS[ATNO][  0].d[  2] =         0.293858276428;
  BAS[ATNO][  0].a[  3] =         1.921080000000;     BAS[ATNO][  0].d[  3] =        -0.675567537251;
  BAS[ATNO][  0].a[  4] =         1.183340000000;     BAS[ATNO][  0].d[  4] =        -0.075226662305;
  BAS[ATNO][  0].a[  5] =         0.461012000000;     BAS[ATNO][  0].d[  5] =         0.822760282081;
  BAS[ATNO][  0].a[  6] =         0.220001000000;     BAS[ATNO][  0].d[  6] =         0.499659051779;
  BAS[ATNO][  0].a[  7] =         0.034551000000;     BAS[ATNO][  0].d[  7] =        -0.011605639099;
  BAS[ATNO][  0].a[  8] =        13.634000000000;     BAS[ATNO][  0].d[  8] =         0.000312700470;
  BAS[ATNO][  0].a[  9] =         7.676960000000;     BAS[ATNO][  0].d[  9] =        -0.003511784455;
  BAS[ATNO][  0].a[ 10] =         4.778160000000;     BAS[ATNO][  0].d[ 10] =         0.011359269740;
  BAS[ATNO][  0].a[ 11] =         1.921080000000;     BAS[ATNO][  0].d[ 11] =        -0.029288579719;
  BAS[ATNO][  0].a[ 12] =         1.183340000000;     BAS[ATNO][  0].d[ 12] =        -0.000857339280;
  BAS[ATNO][  0].a[ 13] =         0.461012000000;     BAS[ATNO][  0].d[ 13] =         0.040279840610;
  BAS[ATNO][  0].a[ 14] =         0.220001000000;     BAS[ATNO][  0].d[ 14] =         0.048558731221;
  BAS[ATNO][  0].a[ 15] =         0.034551000000;     BAS[ATNO][  0].d[ 15] =        -0.074710315061;
  BAS[ATNO][  0].a[ 16] =         0.059207000000;     BAS[ATNO][  0].d[ 16] =        -0.009109736131;
  BAS[ATNO][  0].a[ 17] =         0.016680000000;     BAS[ATNO][  0].d[ 17] =        -0.033571468707;
  BAS[ATNO][  0].a[ 18] =         0.008100000000;     BAS[ATNO][  0].d[ 18] =        -0.000301194458;

FINAL SINGLE POINT ENERGY       -25.095006367068

DIPOLE MOMENT
-------------
                                X             Y             Z
Electronic contribution:      0.00000      -0.00000      -0.00000
Nuclear contribution   :      0.00000       0.00000       0.00000
                        -----------------------------------------
Total Dipole Moment    :      0.00000      -0.00000      -0.00000
                        -----------------------------------------
Magnitude (a.u.)       :      0.00000
Magnitude (Debye)      :      0.00000

Rotational constants in cm-1:     0.000000     0.000000     0.000000
Rotational constants in MHz :     0.000000     0.000000     0.000000

                             ****ORCA TERMINATED NORMALLY****
TOTAL RUN TIME: 0 days 0 hours 0 minutes 1 seconds 21 msec
