                         Program Version 4.2.0 -  RELEASE  -
|  1> #
|  2> # 74_W CCSD(T)/aug-cc-pVTZ-PP
|  3> #
|  4> ! CCSD(T) aug-cc-pVTZ-PP tightscf veryslowconv kdiis
|  5>
|  6> *xyz 0 5
|  7>  W 0.0 0.0 0.0
|  8> *
|  9>
| 10> %maxcore 5000
| 11>
| 12> %pal
| 13> nprocs 24
| 14> end
| 15>
| 16> %method
| 17> NewNCore W 60 end
| 18> end
| 19>
| 20>
| 21>                          ****END OF INPUT****

CARTESIAN COORDINATES (ANGSTROEM)
---------------------------------
  W      0.000000    0.000000    0.000000

 Total Charge           Charge          ....    0
 Multiplicity           Mult            ....    5
 Number of Electrons    NEL             ....   14
 Basis Dimension        Dim             ....   88

ORBITAL ENERGIES
----------------
                 SPIN UP ORBITALS
  NO   OCC          E(Eh)            E(eV)
   0   1.0000      -3.476248       -94.5935
   1   1.0000      -2.030998       -55.2663
   2   1.0000      -2.030997       -55.2662
   3   1.0000      -2.000614       -54.4395
   4   1.0000      -0.379886       -10.3372
   5   1.0000      -0.379885       -10.3372
   6   1.0000      -0.360934        -9.8215
   7   1.0000      -0.360934        -9.8215
   8   1.0000      -0.305950        -8.3253
   9   0.0000       0.014489         0.3943
  10   0.0000       0.014489         0.3943
  11   0.0000       0.018320         0.4985
  12   0.0000       0.031045         0.8448
  13   0.0000       0.047609         1.2955

                 SPIN DOWN ORBITALS
  NO   OCC          E(Eh)            E(eV)
   0   1.0000      -3.327994       -90.5593
   1   1.0000      -1.825222       -49.6668
   2   1.0000      -1.780682       -48.4548
   3   1.0000      -1.780680       -48.4548
   4   1.0000      -0.229091        -6.2339
   5   0.0000       0.014921         0.4060
   6   0.0000       0.019758         0.5376
   7   0.0000       0.019758         0.5376
   8   0.0000       0.035035         0.9533
   9   0.0000       0.052362         1.4248

E(0)                                       ...    -66.683817863
E(0)                                       ...    -66.683817863
E(CORR)                                    ...     -0.355562768
E(TOT)                                     ...    -67.039380631
E(CCSD(T))                                 ...    -67.053790285

MULLIKEN ATOMIC CHARGES AND SPIN DENSITIES
------------------------------------------
   0 W :    0.000000    4.000000
Sum of atomic charges       :    0.0000000

LOEWDIN ATOMIC CHARGES AND SPIN DENSITIES
-----------------------------------------
   0 W :   -0.000000    4.000000

FINAL SINGLE POINT ENERGY       -67.053790285140

DIPOLE MOMENT
-------------
                                X             Y             Z
Electronic contribution:     -0.00000       0.00000      -0.00000
Nuclear contribution   :      0.00000       0.00000       0.00000
                        -----------------------------------------
Total Dipole Moment    :     -0.00000       0.00000      -0.00000
                        -----------------------------------------
Magnitude (a.u.)       :      0.00000
Magnitude (Debye)      :      0.00000

Rotational constants in cm-1:     0.000000     0.000000     0.000000
Rotational constants in MHz :     0.000000     0.000000     0.000000

                             ****ORCA TERMINATED NORMALLY****
TOTAL RUN TIME: 0 days 0 hours 1 minutes 14 seconds 734 msec
