                         Program Version 4.2.0 -  RELEASE  -
|  1> #
|  2> # 75_Re CCSD(T)/aug-cc-pVTZ-PP
|  3> #
|  4> ! CCSD(T) aug-cc-pVTZ-PP tightscf slowconv
|  5>
|  6> *xyz 0 6
|  7>  Re 0.0 0.0 0.0
|  8> *
|  9>
| 10> %maxcore 5000
| 11>
| 12> %pal
| 13> nprocs 24
| 14> end
| 15>
| 16> %method
| 17> NewNCore Re 60 end
| 18> end
| 19>
| 20>
| 21>                          ****END OF INPUT****

CARTESIAN COORDINATES (ANGSTROEM)
---------------------------------
  Re     0.000000    0.000000    0.000000

 Total Charge           Charge          ....    0
 Multiplicity           Mult            ....    6
 Number of Electrons    NEL             ....   15
 Basis Dimension        Dim             ....   88

ORBITAL ENERGIES
----------------
                 SPIN UP ORBITALS
  NO   OCC          E(Eh)            E(eV)
   0   1.0000      -3.777381      -102.7878
   1   1.0000      -2.249141       -61.2022
   2   1.0000      -2.249141       -61.2022
   3   1.0000      -2.249141       -61.2022
   4   1.0000      -0.441953       -12.0262
   5   1.0000      -0.441953       -12.0262
   6   1.0000      -0.441953       -12.0262
   7   1.0000      -0.441953       -12.0262
   8   1.0000      -0.441953       -12.0262
   9   1.0000      -0.326768        -8.8918
  10   0.0000       0.016273         0.4428
  11   0.0000       0.016273         0.4428
  12   0.0000       0.016273         0.4428
  13   0.0000       0.033539         0.9127
  14   0.0000       0.051043         1.3889

                 SPIN DOWN ORBITALS
  NO   OCC          E(Eh)            E(eV)
   0   1.0000      -3.564289       -96.9892
   1   1.0000      -1.935910       -52.6788
   2   1.0000      -1.935910       -52.6788
   3   1.0000      -1.935910       -52.6788
   4   1.0000      -0.223664        -6.0862
   5   0.0000       0.018434         0.5016
   6   0.0000       0.018434         0.5016
   7   0.0000       0.018434         0.5016
   8   0.0000       0.040269         1.0958
   9   0.0000       0.062576         1.7028

E(0)                                       ...    -77.838047070
E(0)                                       ...    -77.838047070
E(CORR)                                    ...     -0.395131925
E(TOT)                                     ...    -78.233178995
E(CCSD(T))                                 ...    -78.248197993

MULLIKEN ATOMIC CHARGES AND SPIN DENSITIES
------------------------------------------
   0 Re:    0.000000    5.000000
Sum of atomic charges       :    0.0000000

LOEWDIN ATOMIC CHARGES AND SPIN DENSITIES
-----------------------------------------
   0 Re:    0.000000    5.000000

FINAL SINGLE POINT ENERGY       -78.248197993345

DIPOLE MOMENT
-------------
                                X             Y             Z
Electronic contribution:      0.00000       0.00000      -0.00000
Nuclear contribution   :      0.00000       0.00000       0.00000
                        -----------------------------------------
Total Dipole Moment    :      0.00000       0.00000      -0.00000
                        -----------------------------------------
Magnitude (a.u.)       :      0.00000
Magnitude (Debye)      :      0.00000

Rotational constants in cm-1:     0.000000     0.000000     0.000000
Rotational constants in MHz :     0.000000     0.000000     0.000000

                             ****ORCA TERMINATED NORMALLY****
TOTAL RUN TIME: 0 days 0 hours 1 minutes 11 seconds 920 msec
