                         Program Version 4.2.0 -  RELEASE  -
|  1> #
|  2> # 76_Os CCSD(T)/aug-cc-pVTZ-PP
|  3> #
|  4> ! CCSD(T) aug-cc-pVTZ-PP tightscf slowconv
|  5>
|  6> *xyz 0 5
|  7>  Os 0.0 0.0 0.0
|  8> *
|  9>
| 10> %maxcore 5000
| 11>
| 12> %pal
| 13> nprocs 24
| 14> end
| 15>
| 16> %method
| 17> NewNCore Os 60 end
| 18> end
| 19>
| 20>
| 21>                          ****END OF INPUT****

CARTESIAN COORDINATES (ANGSTROEM)
---------------------------------
  Os     0.000000    0.000000    0.000000

 Total Charge           Charge          ....    0
 Multiplicity           Mult            ....    5
 Number of Electrons    NEL             ....   16
 Basis Dimension        Dim             ....   88

ORBITAL ENERGIES
----------------
                 SPIN UP ORBITALS
  NO   OCC          E(Eh)            E(eV)
   0   1.0000      -4.041992      -109.9882
   1   1.0000      -2.449477       -66.6537
   2   1.0000      -2.399702       -65.2992
   3   1.0000      -2.399484       -65.2933
   4   1.0000      -0.502408       -13.6712
   5   1.0000      -0.494954       -13.4684
   6   1.0000      -0.494880       -13.4664
   7   1.0000      -0.475877       -12.9493
   8   1.0000      -0.439679       -11.9643
   9   1.0000      -0.325886        -8.8678
  10   0.0000       0.015458         0.4206
  11   0.0000       0.018844         0.5128
  12   0.0000       0.018852         0.5130
  13   0.0000       0.036105         0.9825
  14   0.0000       0.049827         1.3559

                 SPIN DOWN ORBITALS
  NO   OCC          E(Eh)            E(eV)
   0   1.0000      -3.850786      -104.7852
   1   1.0000      -2.154000       -58.6133
   2   1.0000      -2.153842       -58.6090
   3   1.0000      -2.119307       -57.6693
   4   1.0000      -0.342440        -9.3183
   5   1.0000      -0.248157        -6.7527
   6   0.0000       0.018444         0.5019
   7   0.0000       0.019266         0.5243
   8   0.0000       0.019272         0.5244
   9   0.0000       0.041116         1.1188
  10   0.0000       0.061699         1.6789

E(0)                                       ...    -90.071032328
E(0)                                       ...    -90.071032328
E(CORR)                                    ...     -0.456684383
E(TOT)                                     ...    -90.527716711
E(CCSD(T))                                 ...    -90.545799261

MULLIKEN ATOMIC CHARGES AND SPIN DENSITIES
------------------------------------------
   0 Os:   -0.000000    4.000000
Sum of atomic charges       :   -0.0000000

LOEWDIN ATOMIC CHARGES AND SPIN DENSITIES
-----------------------------------------
   0 Os:   -0.000000    4.000000

FINAL SINGLE POINT ENERGY       -90.545799261032

DIPOLE MOMENT
-------------
                                X             Y             Z
Electronic contribution:     -0.00000       0.00000       0.00000
Nuclear contribution   :      0.00000       0.00000       0.00000
                        -----------------------------------------
Total Dipole Moment    :     -0.00000       0.00000       0.00000
                        -----------------------------------------
Magnitude (a.u.)       :      0.00000
Magnitude (Debye)      :      0.00000

Rotational constants in cm-1:     0.000000     0.000000     0.000000
Rotational constants in MHz :     0.000000     0.000000     0.000000

                             ****ORCA TERMINATED NORMALLY****
TOTAL RUN TIME: 0 days 0 hours 1 minutes 10 seconds 566 msec
