                         Program Version 4.2.0 -  RELEASE  -
|  1> #
|  2> # 77_Ir CCSD(T)/aug-cc-pVTZ-PP
|  3> #
|  4> ! CCSD(T) aug-cc-pVTZ-PP tightscf slowconv
|  5>
|  6> *xyz 0 4
|  7>  Ir 0.0 0.0 0.0
|  8> *
|  9>
| 10> %maxcore 5000
| 11>
| 12> %pal
| 13> nprocs 24
| 14> end
| 15>
| 16> %method
| 17> NewNCore Ir 60 end
| 18> end
| 19>
| 20>
| 21>                          ****END OF INPUT****

CARTESIAN COORDINATES (ANGSTROEM)
---------------------------------
  Ir     0.000000    0.000000    0.000000

 Total Charge           Charge          ....    0
 Multiplicity           Mult            ....    4
 Number of Electrons    NEL             ....   17
 Basis Dimension        Dim             ....   88

ORBITAL ENERGIES
----------------
                 SPIN UP ORBITALS
  NO   OCC          E(Eh)            E(eV)
   0   1.0000      -4.159935      -113.1976
   1   1.0000      -2.435696       -66.2787
   2   1.0000      -2.435696       -66.2787
   3   1.0000      -2.435696       -66.2787
   4   1.0000      -0.429697       -11.6927
   5   1.0000      -0.429697       -11.6927
   6   1.0000      -0.391475       -10.6526
   7   1.0000      -0.391475       -10.6526
   8   1.0000      -0.391475       -10.6526
   9   1.0000      -0.292462        -7.9583
  10   0.0000       0.020231         0.5505
  11   0.0000       0.020231         0.5505
  12   0.0000       0.020231         0.5505
  13   0.0000       0.039809         1.0832
  14   0.0000       0.064669         1.7597

                 SPIN DOWN ORBITALS
  NO   OCC          E(Eh)            E(eV)
   0   1.0000      -4.058243      -110.4304
   1   1.0000      -2.297900       -62.5290
   2   1.0000      -2.297900       -62.5290
   3   1.0000      -2.297900       -62.5290
   4   1.0000      -0.338088        -9.1999
   5   1.0000      -0.338088        -9.1999
   6   1.0000      -0.338088        -9.1999
   7   0.0000      -0.003309        -0.0900
   8   0.0000       0.026110         0.7105
   9   0.0000       0.026110         0.7105
  10   0.0000       0.026110         0.7105
  11   0.0000       0.066048         1.7972

E(0)                                       ...   -103.617546535
E(0)                                       ...   -103.617546535
E(CORR)                                    ...     -0.509420549
E(TOT)                                     ...   -104.126967084
E(CCSD(T))                                 ...   -104.146703727

MULLIKEN ATOMIC CHARGES AND SPIN DENSITIES
------------------------------------------
   0 Ir:   -0.000000    3.000000
Sum of atomic charges       :   -0.0000000

LOEWDIN ATOMIC CHARGES AND SPIN DENSITIES
-----------------------------------------
   0 Ir:   -0.000000    3.000000

FINAL SINGLE POINT ENERGY      -104.146703727110

DIPOLE MOMENT
-------------
                                X             Y             Z
Electronic contribution:      0.00000       0.00000       0.00000
Nuclear contribution   :      0.00000       0.00000       0.00000
                        -----------------------------------------
Total Dipole Moment    :      0.00000       0.00000       0.00000
                        -----------------------------------------
Magnitude (a.u.)       :      0.00000
Magnitude (Debye)      :      0.00000

Rotational constants in cm-1:     0.000000     0.000000     0.000000
Rotational constants in MHz :     0.000000     0.000000     0.000000

                             ****ORCA TERMINATED NORMALLY****
TOTAL RUN TIME: 0 days 0 hours 2 minutes 51 seconds 696 msec
