                         Program Version 4.2.0 -  RELEASE  -
|  1> #
|  2> # 78_Pt CCSD(T)/aug-cc-pVTZ-PP
|  3> #
|  4> ! CCSD(T) aug-cc-pVTZ-PP tightscf veryslowconv kdiis
|  5>
|  6> *xyz 0 3
|  7>  Pt 0.0 0.0 0.0
|  8> *
|  9>
| 10> %maxcore 5000
| 11>
| 12> %pal
| 13> nprocs 24
| 14> end
| 15>
| 16> %method
| 17> NewNCore Pt 60 end
| 18> end
| 19>
| 20>
| 21>                          ****END OF INPUT****

CARTESIAN COORDINATES (ANGSTROEM)
---------------------------------
  Pt     0.000000    0.000000    0.000000

 Total Charge           Charge          ....    0
 Multiplicity           Mult            ....    3
 Number of Electrons    NEL             ....   18
 Basis Dimension        Dim             ....   88

ORBITAL ENERGIES
----------------
                 SPIN UP ORBITALS
  NO   OCC          E(Eh)            E(eV)
   0   1.0000      -4.414568      -120.1265
   1   1.0000      -2.623156       -71.3797
   2   1.0000      -2.569254       -69.9129
   3   1.0000      -2.569060       -69.9077
   4   1.0000      -0.479373       -13.0444
   5   1.0000      -0.431560       -11.7433
   6   1.0000      -0.431490       -11.7414
   7   1.0000      -0.413976       -11.2649
   8   1.0000      -0.413976       -11.2649
   9   1.0000      -0.291715        -7.9380
  10   0.0000       0.018984         0.5166
  11   0.0000       0.020973         0.5707
  12   0.0000       0.020981         0.5709
  13   0.0000       0.042852         1.1661
  14   0.0000       0.060845         1.6557

                 SPIN DOWN ORBITALS
  NO   OCC          E(Eh)            E(eV)
   0   1.0000      -4.357653      -118.5778
   1   1.0000      -2.527359       -68.7729
   2   1.0000      -2.527230       -68.7694
   3   1.0000      -2.488446       -67.7141
   4   1.0000      -0.405446       -11.0327
   5   1.0000      -0.405323       -11.0294
   6   1.0000      -0.370702       -10.0873
   7   1.0000      -0.370702       -10.0873
   8   0.0000      -0.008108        -0.2206
   9   0.0000       0.024728         0.6729
  10   0.0000       0.025356         0.6900
  11   0.0000       0.025359         0.6900
  12   0.0000       0.067285         1.8309

E(0)                                       ...   -118.515610731
E(0)                                       ...   -118.515610731
E(CORR)                                    ...     -0.568773711
E(TOT)                                     ...   -119.084384442
E(CCSD(T))                                 ...   -119.106648613

MULLIKEN ATOMIC CHARGES AND SPIN DENSITIES
------------------------------------------
   0 Pt:   -0.000000    2.000000
Sum of atomic charges       :   -0.0000000

LOEWDIN ATOMIC CHARGES AND SPIN DENSITIES
-----------------------------------------
   0 Pt:   -0.000000    2.000000

FINAL SINGLE POINT ENERGY      -119.106648612889

DIPOLE MOMENT
-------------
                                X             Y             Z
Electronic contribution:     -0.00000      -0.00000      -0.00000
Nuclear contribution   :      0.00000       0.00000       0.00000
                        -----------------------------------------
Total Dipole Moment    :     -0.00000      -0.00000      -0.00000
                        -----------------------------------------
Magnitude (a.u.)       :      0.00000
Magnitude (Debye)      :      0.00000

Rotational constants in cm-1:     0.000000     0.000000     0.000000
Rotational constants in MHz :     0.000000     0.000000     0.000000

                             ****ORCA TERMINATED NORMALLY****
TOTAL RUN TIME: 0 days 0 hours 0 minutes 46 seconds 46 msec
