                         Program Version 4.2.0 -  RELEASE  -
|  1> #
|  2> # 80_Hg CCSD(T)/aug-cc-pVTZ-PP
|  3> #
|  4> ! CCSD(T) aug-cc-pVTZ-PP tightscf slowconv
|  5>
|  6> *xyz 0 1
|  7>  Hg 0.0 0.0 0.0
|  8> *
|  9>
| 10> %maxcore 5000
| 11>
| 12> %pal
| 13> nprocs 24
| 14> end
| 15>
| 16> %method
| 17> NewNCore Hg 60 end
| 18> end
| 19>
| 20>
| 21>                          ****END OF INPUT****

CARTESIAN COORDINATES (ANGSTROEM)
---------------------------------
  Hg     0.000000    0.000000    0.000000

 Total Charge           Charge          ....    0
 Multiplicity           Mult            ....    1
 Number of Electrons    NEL             ....   20
 Basis Dimension        Dim             ....   88

ORBITAL ENERGIES
----------------

  NO   OCC          E(Eh)            E(eV)
   0   2.0000      -5.067287      -137.8879
   1   2.0000      -3.033932       -82.5575
   2   2.0000      -3.033932       -82.5575
   3   2.0000      -3.033932       -82.5575
   4   2.0000      -0.602431       -16.3930
   5   2.0000      -0.602431       -16.3930
   6   2.0000      -0.602431       -16.3930
   7   2.0000      -0.602431       -16.3930
   8   2.0000      -0.602431       -16.3930
   9   2.0000      -0.326627        -8.8880
  10   0.0000       0.022574         0.6143
  11   0.0000       0.022574         0.6143
  12   0.0000       0.022574         0.6143
  13   0.0000       0.045126         1.2279
  14   0.0000       0.070176         1.9096

E(0)                                       ...   -152.540746911
E(0)                                       ...   -152.540746911
E(CORR)                                    ...     -0.677132196
E(TOT)                                     ...   -153.217879107
E(CCSD(T))                                 ...   -153.243307662

MULLIKEN ATOMIC CHARGES
-----------------------
   0 Hg:   -0.000000
Sum of atomic charges:   -0.0000000

LOEWDIN ATOMIC CHARGES
----------------------
   0 Hg:   -0.000000

FINAL SINGLE POINT ENERGY      -153.243307662069

DIPOLE MOMENT
-------------
                                X             Y             Z
Electronic contribution:     -0.00000       0.00000       0.00000
Nuclear contribution   :      0.00000       0.00000       0.00000
                        -----------------------------------------
Total Dipole Moment    :     -0.00000       0.00000       0.00000
                        -----------------------------------------
Magnitude (a.u.)       :      0.00000
Magnitude (Debye)      :      0.00000

Rotational constants in cm-1:     0.000000     0.000000     0.000000
Rotational constants in MHz :     0.000000     0.000000     0.000000

                             ****ORCA TERMINATED NORMALLY****
TOTAL RUN TIME: 0 days 0 hours 0 minutes 40 seconds 760 msec
