                         Program Version 4.2.0 -  RELEASE  -
|  1> #
|  2> # 81_Tl CCSD(T)/aug-cc-pVTZ-PP
|  3> #
|  4> ! CCSD(T) aug-cc-pVTZ-PP tightscf slowconv
|  5>
|  6> *xyz 0 2
|  7>  Tl 0.0 0.0 0.0
|  8> *
|  9>
| 10> %maxcore 5000
| 11>
| 12> %pal
| 13> nprocs 24
| 14> end
| 15>
| 16>
| 17>                          ****END OF INPUT****

CARTESIAN COORDINATES (ANGSTROEM)
---------------------------------
  Tl     0.000000    0.000000    0.000000

 Total Charge           Charge          ....    0
 Multiplicity           Mult            ....    2
 Number of Electrons    NEL             ....   21
 Basis Dimension        Dim             ....   55

ORBITAL ENERGIES
----------------
                 SPIN UP ORBITALS
  NO   OCC          E(Eh)            E(eV)
   0   1.0000      -5.643576      -153.5695
   1   1.0000      -3.469772       -94.4173
   2   1.0000      -3.469772       -94.4173
   3   1.0000      -3.464012       -94.2606
   4   1.0000      -0.847407       -23.0591
   5   1.0000      -0.847407       -23.0591
   6   1.0000      -0.839301       -22.8385
   7   1.0000      -0.839301       -22.8385
   8   1.0000      -0.836817       -22.7709
   9   1.0000      -0.473567       -12.8864
  10   1.0000      -0.192349        -5.2341
  11   0.0000       0.008187         0.2228
  12   0.0000       0.008187         0.2228
  13   0.0000       0.035332         0.9614
  14   0.0000       0.039022         1.0618
  15   0.0000       0.051480         1.4008

                 SPIN DOWN ORBITALS
  NO   OCC          E(Eh)            E(eV)
   0   1.0000      -5.643191      -153.5590
   1   1.0000      -3.472118       -94.4811
   2   1.0000      -3.472118       -94.4811
   3   1.0000      -3.460372       -94.1615
   4   1.0000      -0.848008       -23.0755
   5   1.0000      -0.848008       -23.0755
   6   1.0000      -0.835832       -22.7441
   7   1.0000      -0.835832       -22.7441
   8   1.0000      -0.832187       -22.6450
   9   1.0000      -0.423130       -11.5140
  10   0.0000       0.014370         0.3910
  11   0.0000       0.014370         0.3910
  12   0.0000       0.026943         0.7332
  13   0.0000       0.039855         1.0845
  14   0.0000       0.057123         1.5544

E(0)                                       ...   -171.515187393
E(0)                                       ...   -171.515187393
E(CORR)                                    ...     -0.149194057
E(TOT)                                     ...   -171.664381450
E(CCSD(T))                                 ...   -171.670053791

MULLIKEN ATOMIC CHARGES AND SPIN DENSITIES
------------------------------------------
   0 Tl:   -0.000000    1.000000
Sum of atomic charges       :   -0.0000000

LOEWDIN ATOMIC CHARGES AND SPIN DENSITIES
-----------------------------------------
   0 Tl:   -0.000000    1.000000

FINAL SINGLE POINT ENERGY      -171.670053790952

DIPOLE MOMENT
-------------
                                X             Y             Z
Electronic contribution:     -0.00000       0.00000      -0.00000
Nuclear contribution   :      0.00000       0.00000       0.00000
                        -----------------------------------------
Total Dipole Moment    :     -0.00000       0.00000      -0.00000
                        -----------------------------------------
Magnitude (a.u.)       :      0.00000
Magnitude (Debye)      :      0.00000

Rotational constants in cm-1:     0.000000     0.000000     0.000000
Rotational constants in MHz :     0.000000     0.000000     0.000000

                             ****ORCA TERMINATED NORMALLY****
TOTAL RUN TIME: 0 days 0 hours 0 minutes 18 seconds 694 msec
