                         Program Version 4.2.0 -  RELEASE  -
|  1> # input to generate an atomic fitting density for Tl
|  2> # this file is use internally by ORCA
|  3> #
|  4> # atomic ground state (S=2): 1s2 2s2 2p6 3s2 3p6 4s2 3d10 4p6 5s2 4d10 5p6 6s2 4f14 5d10 6p1
|  5> #
|  6> ! RHF AllowRHF def2-SVP def2/J  NoMulliken NoLoewdin NoMayer NoPrintMOs
|  7>
|  8> %output print[p_atomdensfit] 2 end
|  9>
| 10> %scf
| 11>   guess hcore
| 12>   maxiter 1000
| 13>   maxdisk 500000
| 14>   SCFMode Conventional
| 15>   lshift 1.000000
| 16>   hftyp rohf
| 17>   rohf_case sahf
| 18>   rohf_numop   2
| 19>   rohf_norb[1] 3
| 20>   rohf_nel[1]  1
| 21> end
| 22>
| 23> %basis
| 24>   NewECP 81
| 25>     N_core 60
| 26>     lmax h
| 27>     s 2
| 28>       1      12.1678050000    281.2846630000  2
| 29>       2       8.2949090000     62.4342510000  2
| 30>     p 4
| 31>       1       7.1514920000      4.6334080000  2
| 32>       2       5.1728650000      9.3417560000  2
| 33>       3       9.8910720000     72.2992530000  2
| 34>       4       9.0033910000    144.5580370000  2
| 35>     d 4
| 36>       1       7.1302180000     35.9430390000  2
| 37>       2       6.9269060000     53.9095930000  2
| 38>       3       5.4175700000     10.3819390000  2
| 39>       4       5.1386810000     15.5838220000  2
| 40>     f 4
| 41>       1       5.6263990000     15.8254880000  2
| 42>       2       5.5489520000     21.1040210000  2
| 43>       3       2.8749460000      2.9151270000  2
| 44>       4       2.8214510000      3.8969030000  2
| 45>     g 4
| 46>       1       6.6790570000     -7.4945340000  2
| 47>       2       6.7068350000     -9.5405750000  2
| 48>       3       7.2092840000     -7.7979920000  2
| 49>       4       7.0709640000     -9.2595240000  2
| 50>     h 1
| 51>       1       1.0000000000      0.0000000000  2
| 52>   end
| 53>   NewGTO 81
| 54>     s 9
| 55>      1     562.3040000000      0.0002020872
| 56>      2      35.2498000000      0.0225674287
| 57>      3      22.0333000000     -0.1808303127
| 58>      4      13.7732000000      0.5355954766
| 59>      5       6.6070300000     -0.8630513062
| 60>      6       4.1305000000     -0.2013646213
| 61>      7       1.6915600000      0.9257208036
| 62>      8       0.8210210000      0.5324937437
| 63>      9       0.0533000000      0.0011880280
| 64>     s 9
| 65>      1     562.3040000000     -0.0001261718
| 66>      2      35.2498000000     -0.0106960652
| 67>      3      22.0333000000      0.0937666855
| 68>      4      13.7732000000     -0.2987688444
| 69>      5       6.6070300000      0.5442331020
| 70>      6       4.1305000000      0.0886251841
| 71>      7       1.6915600000     -0.7437017257
| 72>      8       0.8210210000     -0.6035518786
| 73>      9       0.0533000000      0.3879542915
| 74>     s 1
| 75>      1       0.2773460000      1.0000000000
| 76>     s 1
| 77>      1       0.1267730000      1.0000000000
| 78>     s 1
| 79>      1       0.0572000000      1.0000000000
| 80>     s 1
| 81>      1       0.0183000000      1.0000000000
| 82>     p 9
| 83>      1      18.7574000000     -0.0166779973
| 84>      2      11.7331000000      0.1512459754
| 85>      3       6.9769600000     -0.3814159379
| 86>      4       1.9274400000      0.5503949104
| 87>      5       0.9808470000      0.4895039203
| 88>      6       0.4788090000      0.1406889771
| 89>      7       0.1908570000      0.0089599985
| 90>      8       0.0751060000      0.0001670000
| 91>      9       0.0295540000      0.0000910000
| 92>     p 9
| 93>      1      18.7574000000      0.0026179999
| 94>      2      11.7331000000     -0.0328789984
| 95>      3       6.9769600000      0.0924059955
| 96>      4       1.9274400000     -0.1666269918
| 97>      5       0.9808470000     -0.1563699923
| 98>      6       0.4788090000     -0.0023449999
| 99>      7       0.1908570000      0.3309879837
|100>      8       0.0751060000      0.5452359732
|101>      9       0.0295540000      0.2687239868
|102>     p 1
|103>      1       0.2939000000      1.0000000000
|104>     p 1
|105>      1       0.0434000000      1.0000000000
|106>     p 1
|107>      1       0.0122000000      1.0000000000
|108>   end
|109>   NewAuxGTO 81
|110>     S 1
|111>      1 1310.72 1.0
|112>     S 1
|113>      1  655.36 1.0
|114>     S 1
|115>      1  327.68 1.0
|116>     S 1
|117>      1  163.84 1.0
|118>     S 1
|119>      1   81.82 1.0
|120>     S 1
|121>      1   40.96 1.0
|122>     S 1
|123>      1   20.48 1.0
|124>     S 1
|125>      1   10.24 1.0
|126>     S 1
|127>      1    5.12 1.0
|128>     S 1
|129>      1    2.56 1.0
|130>     S 1
|131>      1    1.28 1.0
|132>     S 1
|133>      1    0.64 1.0
|134>     S 1
|135>      1    0.32 1.0
|136>     S 1
|137>      1    0.16 1.0
|138>     S 1
|139>      1    0.08 1.0
|140>     S 1
|141>      1    0.04 1.0
|142>     S 1
|143>      1    0.02 1.0
|144>     S 1
|145>      1    0.01 1.0
|146>   end
|147> end
|148>
|149> * xyz 0 2
|150> 81  0.0 0.0 0.0
|151> *
|152>
|153>
|154>                          ****END OF INPUT****

CARTESIAN COORDINATES (ANGSTROEM)
---------------------------------
  Tl     0.000000    0.000000    0.000000

 Total Charge           Charge          ....    0
 Multiplicity           Mult            ....    2
 Number of Electrons    NEL             ....   21
 Basis Dimension        Dim             ....   21

ORBITAL ENERGIES
----------------

  NO   OCC          E(Eh)            E(eV)
   0   2.0000      -8.892117      -241.9668
   1   2.0000      -6.403120      -174.2378
   2   2.0000      -6.403120      -174.2378
   3   2.0000      -6.397252      -174.0781
   4   2.0000      -2.161205       -58.8094
   5   2.0000      -1.284575       -34.9551
   6   2.0000      -1.284575       -34.9551
   7   2.0000      -1.268323       -34.5128
   8   2.0000      -0.385513       -10.4903
   9   2.0000      -0.161005        -4.3812
  10   0.3333      -0.181719        -4.9448
  11   0.3333      -0.181719        -4.9448
  12   0.3333      -0.081736        -2.2241
  13   0.0000      -0.053116        -1.4454
  14   0.0000      -0.053116        -1.4454
  15   0.0000      -0.042718        -1.1624
  16   0.0000       0.165239         4.4964
  17   0.0000       0.573237        15.5986

CleanUpVectors: The p-vectors have cracked symmetry
CleanUpVectors: The p-vectors have cracked symmetry
CleanUpVectors: The p-vectors have cracked symmetry
CleanUpVectors: The p-vectors have cracked symmetry
CleanUpVectors: The p-vectors have cracked symmetry
CleanUpVectors: The p-vectors have cracked symmetry
CleanUpVectors: The p-vectors have cracked symmetry
CleanUpVectors: The p-vectors have cracked symmetry
CleanUpVectors: The p-vectors have cracked symmetry
CleanUpVectors: The p-vectors have cracked symmetry
CleanUpVectors: The p-vectors have cracked symmetry
CleanUpVectors: The p-vectors have cracked symmetry
CleanUpVectors: The p-vectors have cracked symmetry
CleanUpVectors: The p-vectors have cracked symmetry
--------------------------
ATOM BASIS FOR ELEMENT Tl
--------------------------
 NewGTO Tl
 S 22
    1        562.304000000000         0.000190131338
    2         35.249800000000         0.021232296805
    3         22.033300000000        -0.170132048341
    4         13.773200000000         0.503908632107
    5          6.607030000000        -0.811991553600
    6          4.130500000000        -0.189451508288
    7          1.691560000000         0.870953404641
    8          0.821021000000         0.500990403610
    9          0.053300000000         0.001117742010
   10        562.304000000000         0.000019418460
   11         35.249800000000         0.001646176965
   12         22.033300000000        -0.014431153411
   13         13.773200000000         0.045981992484
   14          6.607030000000        -0.083760147268
   15          4.130500000000        -0.013639851094
   16          1.691560000000         0.114459348097
   17          0.821021000000         0.092889598316
   18          0.053300000000        -0.059708070806
   19          0.277346000000        -0.225897465127
   20          0.126773000000         0.175863933727
   21          0.057200000000        -0.019672437119
   22          0.018300000000         0.018267818979
 P 43
    1         18.757400000000        -0.006587394955
    2         11.733100000000         0.059738406076
    3          6.976960000000        -0.150649828016
    4          1.927440000000         0.217392327781
    5          0.980847000000         0.193341898119
    6          0.478809000000         0.055568653792
    7          0.190857000000         0.003538977004
    8          0.075106000000         0.000065960855
    9          0.029554000000         0.000035942741
   10         18.757400000000         0.016656055454
   11         11.733100000000        -0.151046993718
   12          6.976960000000         0.380914140845
   13          1.927440000000        -0.549670801841
   14          0.980847000000        -0.488859920925
   15          0.478809000000        -0.140503884377
   16          0.190857000000        -0.008948210579
   17          0.075106000000        -0.000166780292
   18          0.029554000000        -0.000090880279
   19         18.757400000000        -0.006556234959
   20         11.733100000000         0.059455828751
   21          6.976960000000        -0.149937217348
   22          1.927440000000         0.216364008705
   23          0.980847000000         0.192427343479
   24          0.478809000000         0.055305800419
   25          0.190857000000         0.003522236774
   26          0.075106000000         0.000065648844
   27          0.029554000000         0.000035772723
   28         18.757400000000         0.000134326241
   29         11.733100000000        -0.001686979534
   30          6.976960000000         0.004741233942
   31          1.927440000000        -0.008549418735
   32          0.980847000000        -0.008023145154
   33          0.478809000000        -0.000120318958
   34          0.190857000000         0.016982571901
   35          0.075106000000         0.027975363378
   36          0.029554000000         0.013787885519
   37         18.757400000000        -0.000339640378
   38         11.733100000000         0.004265483526
   39          6.976960000000        -0.011988085730
   40          1.927440000000         0.021616981148
   41          0.980847000000         0.020286312194
   42          0.478809000000         0.000304223332
   43          0.190857000000        -0.042939987853
 S 22
    1        562.304000000000         0.000064680982
    2         35.249800000000         0.007223037612
    3         22.033300000000        -0.057877402314
    4         13.773200000000         0.171425213031
    5          6.607030000000        -0.276232269475
    6          4.130500000000        -0.064449709923
    7          1.691560000000         0.296290564236
    8          0.821021000000         0.170432457777
    9          0.053300000000         0.000380245842
   10        562.304000000000        -0.000192999046
   11         35.249800000000        -0.016361266026
   12         22.033300000000         0.143430472530
   13         13.773200000000        -0.457012597821
   14          6.607030000000         0.832487685470
   15          4.130500000000         0.135565760544
   16          1.691560000000        -1.137605423178
   17          0.821021000000        -0.923224817877
   18          0.053300000000         0.593435366228
   19          0.277346000000         2.164044217566
   20          0.126773000000        -0.787368262108
   21          0.057200000000        -0.233073451854
   22          0.018300000000        -0.097829874659
 P 43
    1         18.757400000000         0.007614291310
    2         11.733100000000        -0.069050911533
    3          6.976960000000         0.174134340537
    4          1.927440000000        -0.251281200479
    5          0.980847000000        -0.223481595502
    6          0.478809000000        -0.064231144569
    7          0.190857000000        -0.004090661336
    8          0.075106000000        -0.000076243366
    9          0.029554000000        -0.000041545786
   10         18.757400000000        -0.005953621527
   11         11.733100000000         0.053990972590
   12          6.976960000000        -0.136155804438
   13          1.927440000000         0.196477006695
   14          0.980847000000         0.174740469449
   15          0.478809000000         0.050222392274
   16          0.190857000000         0.003198491941
   17          0.075106000000         0.000059614759
   18          0.029554000000         0.000032484689
   19         18.757400000000         0.002916511210
   20         11.733100000000        -0.026448654162
   21          6.976960000000         0.066698887073
   22          1.927440000000        -0.096248542146
   23          0.980847000000        -0.085600425828
   24          0.478809000000        -0.024602532992
   25          0.190857000000        -0.001566850959
   26          0.075106000000        -0.000029203589
   27          0.029554000000        -0.000015913333
   28         18.757400000000         0.000512878076
   29         11.733100000000        -0.006441145186
   30          6.976960000000         0.018102754404
   31          1.927440000000        -0.032642984833
   32          0.980847000000        -0.030633592024
   33          0.478809000000        -0.000459396136
   34          0.190857000000         0.064842049990
   35          0.075106000000         0.106814204658
   36          0.029554000000         0.052644250074
   37         18.757400000000        -0.000401019850
   38         11.733100000000         0.005036337471
   39          6.976960000000        -0.014154560673
   40          1.927440000000         0.025523580504
   41          0.980847000000         0.023952434379
   42          0.478809000000         0.000359202270
   43          0.190857000000        -0.050700059796
 S 22
    1        562.304000000000         0.000103370723
    2         35.249800000000         0.011543588188
    3         22.033300000000        -0.092497496699
    4         13.773200000000         0.273965355085
    5          6.607030000000        -0.441464067360
    6          4.130500000000        -0.103001112568
    7          1.691560000000         0.473520482805
    8          0.821021000000         0.272378770820
    9          0.053300000000         0.000607694663
   10        562.304000000000        -0.000170079306
   11         35.249800000000        -0.014418272107
   12         22.033300000000         0.126397283564
   13         13.773200000000        -0.402739737941
   14          6.607030000000         0.733625011397
   15          4.130500000000         0.119466551109
   16          1.691560000000        -1.002508272628
   17          0.821021000000        -0.813586590359
   18          0.053300000000         0.522961522328
   19          0.277346000000         4.446540697431
   20          0.126773000000        -7.800180516863
   21          0.057200000000         5.134669070093
   22          0.018300000000        -1.587601001907
 P 43
    1         18.757400000000         0.006548701287
    2         11.733100000000        -0.059387508939
    3          6.976960000000         0.149764926713
    4          1.927440000000        -0.216115388029
    5          0.980847000000        -0.192206228070
    6          0.478809000000        -0.055242249343
    7          0.190857000000        -0.003518189424
    8          0.075106000000        -0.000065573408
    9          0.029554000000        -0.000035731617
   10         18.757400000000         0.007446210421
   11         11.733100000000        -0.067526654303
   12          6.976960000000         0.170290429985
   13          1.927440000000        -0.245734319519
   14          0.980847000000        -0.218548374056
   15          0.478809000000        -0.062813280788
   16          0.190857000000        -0.004000362454
   17          0.075106000000        -0.000074560339
   18          0.029554000000        -0.000040628688
   19         18.757400000000        -0.001896718456
   20         11.733100000000         0.017200568373
   21          6.976960000000        -0.043376829705
   22          1.927440000000         0.062594097222
   23          0.980847000000         0.055669221134
   24          0.478809000000         0.015999965378
   25          0.190857000000         0.001018982928
   26          0.075106000000         0.000018992207
   27          0.029554000000         0.000010349047
   28         18.757400000000         0.000441102813
   29         11.733100000000        -0.005539732334
   30          6.976960000000         0.015569345359
   31          1.927440000000        -0.028074727915
   32          0.980847000000        -0.026346541701
   33          0.478809000000        -0.000395105459
   34          0.190857000000         0.055767660961
   35          0.075106000000         0.091865978206
   36          0.029554000000         0.045276895011
   37         18.757400000000         0.000501556602
   38         11.733100000000        -0.006298960791
   39          6.976960000000         0.017703147018
   40          1.927440000000        -0.031922410629
   41          0.980847000000        -0.029957373955
   42          0.478809000000        -0.000449255243
   43          0.190857000000         0.063410700840
 P 43
    1         18.757400000000         0.003935101665
    2         11.733100000000        -0.035685836786
    3          6.976960000000         0.089993448563
    4          1.927440000000        -0.129863309675
    5          0.980847000000        -0.115496342695
    6          0.478809000000        -0.033194958485
    7          0.190857000000        -0.002114073074
    8          0.075106000000        -0.000039402931
    9          0.029554000000        -0.000021471058
   10         18.757400000000         0.001219715254
   11         11.733100000000        -0.011061101640
   12          6.976960000000         0.027894166737
   13          1.927440000000        -0.040252139138
   14          0.980847000000        -0.035798986393
   15          0.478809000000        -0.010289034608
   16          0.190857000000        -0.000655273331
   17          0.075106000000        -0.000012213244
   18          0.029554000000        -0.000006655121
   19         18.757400000000         0.000001157917
   20         11.733100000000        -0.000010500676
   21          6.976960000000         0.000026480871
   22          1.927440000000        -0.000038212709
   23          0.980847000000        -0.000033985182
   24          0.478809000000        -0.000009767727
   25          0.190857000000        -0.000000622073
   26         18.757400000000        -0.000108065844
   27         11.733100000000         0.001357179846
   28          6.976960000000        -0.003814336228
   29          1.927440000000         0.006878031755
   30          0.980847000000         0.006454643158
   31          0.478809000000         0.000096796945
   32          0.190857000000        -0.013662527528
   33          0.075106000000        -0.022506259623
   34          0.029554000000        -0.011092393222
   35         18.757400000000        -0.000033495846
   36         11.733100000000         0.000420668410
   37          6.976960000000        -0.001182283071
   38          1.927440000000         0.002131899240
   39          0.980847000000         0.002000666664
   40          0.478809000000         0.000030002963
   41          0.190857000000        -0.004234806278
   42          0.075106000000        -0.006975989570
   43          0.029554000000        -0.003438173234
 P 43
    1         18.757400000000         0.000163853267
    2         11.733100000000        -0.001485918645
    3          6.976960000000         0.003747227338
    4          1.927440000000        -0.005407364113
    5          0.980847000000        -0.004809139550
    6          0.478809000000        -0.001382201237
    7          0.190857000000        -0.000088027657
    8         18.757400000000         0.000343035312
    9         11.733100000000        -0.003110847750
   10          6.976960000000         0.007845014778
   11          1.927440000000        -0.011320597219
   12          0.980847000000        -0.010068183070
   13          0.478809000000        -0.002893709976
   14          0.190857000000        -0.000184290465
   15          0.075106000000        -0.000003434879
   16         18.757400000000        -0.000102395449
   17         11.733100000000         0.000928582686
   18          6.976960000000        -0.002341723376
   19          1.927440000000         0.003379178738
   20          0.980847000000         0.003005335276
   21          0.478809000000         0.000863767435
   22          0.190857000000         0.000055010386
   23         18.757400000000         0.000234447690
   24         11.733100000000        -0.002944387135
   25          6.976960000000         0.008275161579
   26          1.927440000000        -0.014921816200
   27          0.980847000000        -0.014003279175
   28          0.478809000000        -0.000209999935
   29          0.190857000000         0.029640707090
   30          0.075106000000         0.048827089116
   31          0.029554000000         0.024064828251
   32         18.757400000000         0.000490828398
   33         11.733100000000        -0.006164227175
   34          6.976960000000         0.017324479950
   35          1.927440000000        -0.031239596120
   36          0.980847000000        -0.029316591220
   37          0.478809000000        -0.000439645756
   38          0.190857000000         0.062054357579
   39          0.075106000000         0.102222043434
   40          0.029554000000         0.050380966042
   41         18.757400000000        -0.000146511430
   42         11.733100000000         0.001840011176
   43          6.976960000000        -0.005171327375
 P 43
    1         18.757400000000         0.040480119065
    2         11.733100000000        -0.367097738547
    3          6.976960000000         0.925756390400
    4          1.927440000000        -1.335894898236
    5          0.980847000000        -1.188102901097
    6          0.478809000000        -0.341474245482
    7          0.190857000000        -0.021747323709
    8          0.075106000000        -0.000405335231
    9          0.029554000000        -0.000220871293
   10         18.757400000000        -0.006448150114
   11         11.733100000000         0.058475651237
   12          6.976960000000        -0.147465380827
   13          1.927440000000         0.212797072703
   14          0.980847000000         0.189255022799
   15          0.478809000000         0.054394039485
   16          0.190857000000         0.003464169846
   17          0.075106000000         0.000064566569
   18          0.029554000000         0.000035182981
   19         18.757400000000         0.006670460233
   20         11.733100000000        -0.060491691309
   21          6.976960000000         0.152549481828
   22          1.927440000000        -0.220133586563
   23          0.980847000000        -0.195779887452
   24          0.478809000000        -0.056269359570
   25          0.190857000000        -0.003583602552
   26          0.075106000000        -0.000066792603
   27          0.029554000000        -0.000036395970
   28         18.757400000000        -0.015367214478
   29         11.733100000000         0.192994132743
   30          6.976960000000        -0.542407488964
   31          1.927440000000         0.978072123208
   32          0.980847000000         0.917865279345
   33          0.478809000000         0.013764750875
   34          0.190857000000        -1.942843212115
   35          0.075106000000        -3.200442498519
   36          0.029554000000        -1.577364132228
   37         18.757400000000         0.002447870907
   38         11.733100000000        -0.030742378424
   39          6.976960000000         0.086401052969
   40          1.927440000000        -0.155798846889
   41          0.980847000000        -0.146208391721
   42          0.478809000000        -0.002192611632
   43          0.190857000000         0.309478948384
 end
  // -----------------------------------------------
  // The basis set
  // -----------------------------------------------
  BAS[ATNO] = new BFNGauss[NSH];
  // Basis function   1 L = s
  InitBFNGauss(BAS[ATNO][  0]);
  BAS[ATNO][  0].l  = 0;
  BAS[ATNO][  0].ng = 22;
  BAS[ATNO][  0].a[  0] =       562.304000000000;     BAS[ATNO][  0].d[  0] =         0.000190131338;
  BAS[ATNO][  0].a[  1] =        35.249800000000;     BAS[ATNO][  0].d[  1] =         0.021232296805;
  BAS[ATNO][  0].a[  2] =        22.033300000000;     BAS[ATNO][  0].d[  2] =        -0.170132048341;
  BAS[ATNO][  0].a[  3] =        13.773200000000;     BAS[ATNO][  0].d[  3] =         0.503908632107;
  BAS[ATNO][  0].a[  4] =         6.607030000000;     BAS[ATNO][  0].d[  4] =        -0.811991553600;
  BAS[ATNO][  0].a[  5] =         4.130500000000;     BAS[ATNO][  0].d[  5] =        -0.189451508288;
  BAS[ATNO][  0].a[  6] =         1.691560000000;     BAS[ATNO][  0].d[  6] =         0.870953404641;
  BAS[ATNO][  0].a[  7] =         0.821021000000;     BAS[ATNO][  0].d[  7] =         0.500990403610;
  BAS[ATNO][  0].a[  8] =         0.053300000000;     BAS[ATNO][  0].d[  8] =         0.001117742010;
  BAS[ATNO][  0].a[  9] =       562.304000000000;     BAS[ATNO][  0].d[  9] =         0.000019418460;
  BAS[ATNO][  0].a[ 10] =        35.249800000000;     BAS[ATNO][  0].d[ 10] =         0.001646176965;
  BAS[ATNO][  0].a[ 11] =        22.033300000000;     BAS[ATNO][  0].d[ 11] =        -0.014431153411;
  BAS[ATNO][  0].a[ 12] =        13.773200000000;     BAS[ATNO][  0].d[ 12] =         0.045981992484;
  BAS[ATNO][  0].a[ 13] =         6.607030000000;     BAS[ATNO][  0].d[ 13] =        -0.083760147268;
  BAS[ATNO][  0].a[ 14] =         4.130500000000;     BAS[ATNO][  0].d[ 14] =        -0.013639851094;
  BAS[ATNO][  0].a[ 15] =         1.691560000000;     BAS[ATNO][  0].d[ 15] =         0.114459348097;
  BAS[ATNO][  0].a[ 16] =         0.821021000000;     BAS[ATNO][  0].d[ 16] =         0.092889598316;
  BAS[ATNO][  0].a[ 17] =         0.053300000000;     BAS[ATNO][  0].d[ 17] =        -0.059708070806;
  BAS[ATNO][  0].a[ 18] =         0.277346000000;     BAS[ATNO][  0].d[ 18] =        -0.225897465127;
  BAS[ATNO][  0].a[ 19] =         0.126773000000;     BAS[ATNO][  0].d[ 19] =         0.175863933727;
  BAS[ATNO][  0].a[ 20] =         0.057200000000;     BAS[ATNO][  0].d[ 20] =        -0.019672437119;
  BAS[ATNO][  0].a[ 21] =         0.018300000000;     BAS[ATNO][  0].d[ 21] =         0.018267818979;

FINAL SINGLE POINT ENERGY      -156.553532719179

DIPOLE MOMENT
-------------
                                X             Y             Z
Electronic contribution:      0.00000       0.00000       0.00000
Nuclear contribution   :      0.00000       0.00000       0.00000
                        -----------------------------------------
Total Dipole Moment    :      0.00000       0.00000       0.00000
                        -----------------------------------------
Magnitude (a.u.)       :      0.00000
Magnitude (Debye)      :      0.00000

Rotational constants in cm-1:     0.000000     0.000000     0.000000
Rotational constants in MHz :     0.000000     0.000000     0.000000

                             ****ORCA TERMINATED NORMALLY****
TOTAL RUN TIME: 0 days 0 hours 0 minutes 1 seconds 496 msec
