                         Program Version 4.2.0 -  RELEASE  -
|  1> #
|  2> # 82_Pb CCSD(T)/aug-cc-pVTZ-PP
|  3> #
|  4> ! CCSD(T) aug-cc-pVTZ-PP tightscf slowconv
|  5>
|  6> *xyz 0 3
|  7>  Pb 0.0 0.0 0.0
|  8> *
|  9>
| 10> %maxcore 5000
| 11>
| 12> %pal
| 13> nprocs 24
| 14> end
| 15>
| 16>
| 17>                          ****END OF INPUT****

CARTESIAN COORDINATES (ANGSTROEM)
---------------------------------
  Pb     0.000000    0.000000    0.000000

 Total Charge           Charge          ....    0
 Multiplicity           Mult            ....    3
 Number of Electrons    NEL             ....   22
 Basis Dimension        Dim             ....   55

ORBITAL ENERGIES
----------------
                 SPIN UP ORBITALS
  NO   OCC          E(Eh)            E(eV)
   0   1.0000      -6.173911      -168.0007
   1   1.0000      -3.859866      -105.0323
   2   1.0000      -3.853195      -104.8508
   3   1.0000      -3.853195      -104.8508
   4   1.0000      -1.082329       -29.4517
   5   1.0000      -1.078937       -29.3594
   6   1.0000      -1.078937       -29.3594
   7   1.0000      -1.069426       -29.1006
   8   1.0000      -1.069426       -29.1006
   9   1.0000      -0.623314       -16.9612
  10   1.0000      -0.254853        -6.9349
  11   1.0000      -0.254853        -6.9349
  12   0.0000      -0.016637        -0.4527
  13   0.0000       0.043740         1.1902
  14   0.0000       0.062698         1.7061
  15   0.0000       0.062698         1.7061
  16   0.0000       0.069763         1.8983

                 SPIN DOWN ORBITALS
  NO   OCC          E(Eh)            E(eV)
   0   1.0000      -6.169672      -167.8853
   1   1.0000      -3.863349      -105.1271
   2   1.0000      -3.847755      -104.7027
   3   1.0000      -3.847755      -104.7027
   4   1.0000      -1.079267       -29.3683
   5   1.0000      -1.073845       -29.2208
   6   1.0000      -1.073845       -29.2208
   7   1.0000      -1.058720       -28.8092
   8   1.0000      -1.058720       -28.8092
   9   1.0000      -0.503555       -13.7024
  10   0.0000       0.004758         0.1295
  11   0.0000       0.029324         0.7979
  12   0.0000       0.029324         0.7979
  13   0.0000       0.053011         1.4425
  14   0.0000       0.077102         2.0980

E(0)                                       ...   -191.835762324
E(0)                                       ...   -191.835762324
E(CORR)                                    ...     -0.144799024
E(TOT)                                     ...   -191.980561347
E(CCSD(T))                                 ...   -191.985369857

MULLIKEN ATOMIC CHARGES AND SPIN DENSITIES
------------------------------------------
   0 Pb:    0.000000    2.000000
Sum of atomic charges       :    0.0000000

LOEWDIN ATOMIC CHARGES AND SPIN DENSITIES
-----------------------------------------
   0 Pb:    0.000000    2.000000

FINAL SINGLE POINT ENERGY      -191.985369857498

DIPOLE MOMENT
-------------
                                X             Y             Z
Electronic contribution:      0.00000       0.00000       0.00000
Nuclear contribution   :      0.00000       0.00000       0.00000
                        -----------------------------------------
Total Dipole Moment    :      0.00000       0.00000       0.00000
                        -----------------------------------------
Magnitude (a.u.)       :      0.00000
Magnitude (Debye)      :      0.00000

Rotational constants in cm-1:     0.000000     0.000000     0.000000
Rotational constants in MHz :     0.000000     0.000000     0.000000

                             ****ORCA TERMINATED NORMALLY****
TOTAL RUN TIME: 0 days 0 hours 0 minutes 18 seconds 166 msec
