                         Program Version 4.2.0 -  RELEASE  -
|  1> # input to generate an atomic fitting density for Pb
|  2> # this file is use internally by ORCA
|  3> #
|  4> # atomic ground state (S=3): 1s2 2s2 2p6 3s2 3p6 4s2 3d10 4p6 5s2 4d10 5p6 6s2 4f14 5d10 6p2
|  5> #
|  6> ! RHF AllowRHF def2-SVP def2/J  NoMulliken NoLoewdin NoMayer NoPrintMOs
|  7>
|  8> %output print[p_atomdensfit] 2 end
|  9>
| 10> %scf
| 11>   guess hcore
| 12>   maxiter 1000
| 13>   maxdisk 500000
| 14>   SCFMode Conventional
| 15>   lshift 1.000000
| 16>   hftyp rohf
| 17>   rohf_case sahf
| 18>   rohf_numop   2
| 19>   rohf_norb[1] 3
| 20>   rohf_nel[1]  2
| 21> end
| 22>
| 23> %basis
| 24>   NewECP 82
| 25>     N_core 60
| 26>     lmax h
| 27>     s 2
| 28>       1      12.2963030000    281.2854990000  2
| 29>       2       8.6326340000     62.5202170000  2
| 30>     p 4
| 31>       1      10.2417900000     72.2768970000  2
| 32>       2       8.9241760000    144.5910830000  2
| 33>       3       6.5813420000      4.7586930000  2
| 34>       4       6.2554030000      9.9406210000  2
| 35>     d 4
| 36>       1       7.7543360000     35.8485070000  2
| 37>       2       7.7202810000     53.7243420000  2
| 38>       3       4.9702640000     10.1152560000  2
| 39>       4       4.5637890000     14.8337310000  2
| 40>     f 2
| 41>       1       3.8875120000     12.2098920000  2
| 42>       2       3.8119630000     16.1902910000  2
| 43>     g 2
| 44>       1       5.6915770000     -9.0966650000  2
| 45>       2       5.7155670000    -11.5319960000  2
| 46>     h 1
| 47>       1       1.0000000000      0.0000000000  2
| 48>   end
| 49>   NewGTO 82
| 50>     s 9
| 51>      1     544.6750000000      0.0003262571
| 52>      2      36.5128000000      0.0247648582
| 53>      3      22.7761000000     -0.1896852729
| 54>      4      14.2262000000      0.5585133159
| 55>      5       6.8950000000     -0.8903188471
| 56>      6       4.3096900000     -0.2082093132
| 57>      7       1.8008500000      0.9296016356
| 58>      8       0.8907680000      0.5441027744
| 59>      9       0.0632880000      0.0010759326
| 60>     s 9
| 61>      1     544.6750000000     -0.0002033177
| 62>      2      36.5128000000     -0.0116253156
| 63>      3      22.7761000000      0.0967123766
| 64>      4      14.2262000000     -0.3073843189
| 65>      5       6.8950000000      0.5575152117
| 66>      6       4.3096900000      0.0876828430
| 67>      7       1.8008500000     -0.7402421122
| 68>      8       0.8907680000     -0.6238037418
| 69>      9       0.0632880000      0.3399290753
| 70>     s 1
| 71>      1       0.3189680000      1.0000000000
| 72>     s 1
| 73>      1       0.1483520000      1.0000000000
| 74>     s 1
| 75>      1       0.0681000000      1.0000000000
| 76>     s 1
| 77>      1       0.0251000000      1.0000000000
| 78>     p 9
| 79>      1      18.6489000000     -0.0177999934
| 80>      2      11.6679000000      0.1793569334
| 81>      3       7.2934900000     -0.4167248453
| 82>      4       2.0284900000      0.5595177923
| 83>      5       1.0409700000      0.4925178171
| 84>      6       0.5141900000      0.1323699509
| 85>      7       0.2286510000      0.0080589970
| 86>      8       0.0958280000      0.0007989997
| 87>      9       0.0392290000     -0.0000270000
| 88>     p 9
| 89>      1      18.6489000000      0.0030930019
| 90>      2      11.6679000000     -0.0453160276
| 91>      3       7.2934900000      0.1173920716
| 92>      4       2.0284900000     -0.2007621224
| 93>      5       1.0409700000     -0.1848821127
| 94>      6       0.5141900000     -0.0054120033
| 95>      7       0.2286510000      0.3698782255
| 96>      8       0.0958280000      0.5468913335
| 97>      9       0.0392290000      0.2294931399
| 98>     p 1
| 99>      1       0.3696000000      1.0000000000
|100>     p 1
|101>      1       0.0586000000      1.0000000000
|102>     p 1
|103>      1       0.0208000000      1.0000000000
|104>   end
|105>   NewAuxGTO 82
|106>     S 1
|107>      1 1310.72 1.0
|108>     S 1
|109>      1  655.36 1.0
|110>     S 1
|111>      1  327.68 1.0
|112>     S 1
|113>      1  163.84 1.0
|114>     S 1
|115>      1   81.82 1.0
|116>     S 1
|117>      1   40.96 1.0
|118>     S 1
|119>      1   20.48 1.0
|120>     S 1
|121>      1   10.24 1.0
|122>     S 1
|123>      1    5.12 1.0
|124>     S 1
|125>      1    2.56 1.0
|126>     S 1
|127>      1    1.28 1.0
|128>     S 1
|129>      1    0.64 1.0
|130>     S 1
|131>      1    0.32 1.0
|132>     S 1
|133>      1    0.16 1.0
|134>     S 1
|135>      1    0.08 1.0
|136>     S 1
|137>      1    0.04 1.0
|138>     S 1
|139>      1    0.02 1.0
|140>     S 1
|141>      1    0.01 1.0
|142>   end
|143> end
|144>
|145> * xyz 0 3
|146> 82  0.0 0.0 0.0
|147> *
|148>
|149>
|150>                          ****END OF INPUT****

CARTESIAN COORDINATES (ANGSTROEM)
---------------------------------
  Pb     0.000000    0.000000    0.000000

 Total Charge           Charge          ....    0
 Multiplicity           Mult            ....    3
 Number of Electrons    NEL             ....   22
 Basis Dimension        Dim             ....   21

ORBITAL ENERGIES
----------------

  NO   OCC          E(Eh)            E(eV)
   0   2.0000      -9.680462      -263.4188
   1   2.0000      -7.027002      -191.2144
   2   2.0000      -7.027002      -191.2144
   3   2.0000      -7.021103      -191.0539
   4   2.0000      -2.458356       -66.8953
   5   2.0000      -1.501435       -40.8561
   6   2.0000      -1.501435       -40.8561
   7   2.0000      -1.486118       -40.4393
   8   2.0000      -0.469850       -12.7853
   9   2.0000      -0.204667        -5.5693
  10   0.6667      -0.238928        -6.5016
  11   0.6667      -0.238928        -6.5016
  12   0.6667      -0.085928        -2.3382
  13   0.0000       0.002865         0.0780
  14   0.0000       0.002865         0.0780
  15   0.0000       0.015758         0.4288
  16   0.0000       0.283219         7.7068
  17   0.0000       1.216400        33.0999

CleanUpVectors: The p-vectors have cracked symmetry
CleanUpVectors: The p-vectors have cracked symmetry
CleanUpVectors: The p-vectors have cracked symmetry
CleanUpVectors: The p-vectors have cracked symmetry
CleanUpVectors: The p-vectors have cracked symmetry
CleanUpVectors: The p-vectors have cracked symmetry
CleanUpVectors: The p-vectors have cracked symmetry
CleanUpVectors: The p-vectors have cracked symmetry
CleanUpVectors: The p-vectors have cracked symmetry
CleanUpVectors: The p-vectors have cracked symmetry
CleanUpVectors: The p-vectors have cracked symmetry
CleanUpVectors: The p-vectors have cracked symmetry
CleanUpVectors: The p-vectors have cracked symmetry
CleanUpVectors: The p-vectors have cracked symmetry
--------------------------
ATOM BASIS FOR ELEMENT Pb
--------------------------
 NewGTO Pb
 S 22
    1        544.675000000000         0.000304732571
    2         36.512800000000         0.023131018206
    3         22.776100000000        -0.177170951892
    4         14.226200000000         0.521665885336
    5          6.895000000000        -0.831580835016
    6          4.309690000000        -0.194472884734
    7          1.800850000000         0.868271975688
    8          0.890768000000         0.508206066786
    9          0.063288000000         0.001004948882
   10        544.675000000000         0.000034500176
   11         36.512800000000         0.001972653784
   12         22.776100000000        -0.016410740337
   13         14.226200000000         0.052158828253
   14          6.895000000000        -0.094602549276
   15          4.309690000000        -0.014878554525
   16          1.800850000000         0.125608753674
   17          0.890768000000         0.105850787537
   18          0.063288000000        -0.057681219134
   19          0.318968000000        -0.246754609222
   20          0.148352000000         0.194900341579
   21          0.068100000000        -0.035050310704
   22          0.025100000000         0.023404900107
 P 43
    1         18.648900000000         0.020563771639
    2         11.667900000000        -0.207205415053
    3          7.293490000000         0.481429086105
    4          2.028490000000        -0.646393279509
    5          1.040970000000        -0.568990318795
    6          0.514190000000        -0.152922834355
    7          0.228651000000        -0.009310305359
    8          0.095828000000        -0.000923059183
    9          0.039229000000         0.000031192249
   10         18.648900000000         0.001654165625
   11         11.667900000000        -0.016667763137
   12          7.293490000000         0.038726526390
   13          2.028490000000        -0.051996373132
   14          1.040970000000        -0.045770019371
   15          0.514190000000        -0.012301230547
   16          0.228651000000        -0.000748928132
   17          0.095828000000        -0.000074251591
   18         18.648900000000         0.000841767201
   19         11.667900000000        -0.008481844934
   20          7.293490000000         0.019707047010
   21          2.028490000000        -0.026459769702
   22          1.040970000000        -0.023291320122
   23          0.514190000000        -0.006259815978
   24          0.228651000000        -0.000381112464
   25          0.095828000000        -0.000037784943
   26         18.648900000000        -0.000356820363
   27         11.667900000000         0.005227827838
   28          7.293490000000        -0.013542792083
   29          2.028490000000         0.023160675545
   30          1.040970000000         0.021328697740
   31          0.514190000000         0.000624349110
   32          0.228651000000        -0.042670546962
   33          0.095828000000        -0.063091446644
   34          0.039229000000        -0.026475194073
   35         18.648900000000        -0.000028702905
   36         11.667900000000         0.000420530497
   37          7.293490000000        -0.001089392623
   38          2.028490000000         0.001863062575
   39          1.040970000000         0.001715696869
   40          0.514190000000         0.000050223123
   41          0.228651000000        -0.003432451654
   42          0.095828000000        -0.005075124549
   43          0.039229000000        -0.002129684997
 S 22
    1        544.675000000000         0.000112216208
    2         36.512800000000         0.008517878967
    3         22.776100000000        -0.065242295489
    4         14.226200000000         0.192100790080
    5          6.895000000000        -0.306225382784
    6          4.309690000000        -0.071613643631
    7          1.800850000000         0.319736707389
    8          0.890768000000         0.187144280846
    9          0.063288000000         0.000370067278
   10        544.675000000000        -0.000332004042
   11         36.512800000000        -0.018983353494
   12         22.776100000000         0.157924764831
   13         14.226200000000        -0.501937786884
   14          6.895000000000         0.910384604251
   15          4.309690000000         0.143180147643
   16          1.800850000000        -1.208765264557
   17          0.890768000000        -1.018629287042
   18          0.063288000000         0.555081171233
   19          0.318968000000         2.258212968259
   20          0.148352000000        -0.821304618607
   21          0.068100000000        -0.150983841544
   22          0.025100000000        -0.118765067173
 P 43
    1         18.648900000000         0.009389625908
    2         11.667900000000        -0.094612086123
    3          7.293490000000         0.219825385090
    4          2.028490000000        -0.295149702602
    5          1.040970000000        -0.259806728658
    6          0.514190000000        -0.069826111304
    7          0.228651000000        -0.004251179499
    8          0.095828000000        -0.000421478150
    9          0.039229000000         0.000014242696
   10         18.648900000000         0.000747662109
   11         11.667900000000        -0.007533619816
   12          7.293490000000         0.017503904047
   13          2.028490000000        -0.023501708284
   14          1.040970000000        -0.020687474503
   15          0.514190000000        -0.005560001870
   16          0.228651000000        -0.000338506119
   17          0.095828000000        -0.000033560788
   18         18.648900000000         0.000081127918
   19         11.667900000000        -0.000817464040
   20          7.293490000000         0.001899327610
   21          2.028490000000        -0.002550142146
   22          1.040970000000        -0.002244773017
   23          0.514190000000        -0.000603309127
   24          0.228651000000        -0.000036730893
   25          0.095828000000        -0.000003641641
   26         18.648900000000         0.001993827521
   27         11.667900000000        -0.029211861453
   28          7.293490000000         0.075673908612
   29          2.028490000000        -0.129416359181
   30          1.040970000000        -0.119179701915
   31          0.514190000000        -0.003488714677
   32          0.228651000000         0.238432891187
   33          0.095828000000         0.352540032967
   34          0.039229000000         0.147937102218
   35         18.648900000000         0.000158761308
   36         11.667900000000        -0.002326035365
   37          7.293490000000         0.006025640918
   38          2.028490000000        -0.010304958785
   39          1.040970000000        -0.009489850618
   40          0.514190000000        -0.000277793790
   41          0.228651000000         0.018985552770
   42          0.095828000000         0.028071493686
   43          0.039229000000         0.011779698878
 S 22
    1        544.675000000000         0.000196276304
    2         36.512800000000         0.014898541176
    3         22.776100000000        -0.114114679196
    4         14.226200000000         0.336001666847
    5          6.895000000000        -0.535615907687
    6          4.309690000000        -0.125258743698
    7          1.800850000000         0.559248437187
    8          0.890768000000         0.327332283636
    9          0.063288000000         0.000647281160
   10        544.675000000000        -0.000316557803
   11         36.512800000000        -0.018100167230
   12         22.776100000000         0.150577433759
   13         14.226200000000        -0.478585508338
   14          6.895000000000         0.868029644299
   15          4.309690000000         0.136518798811
   16          1.800850000000        -1.152528368488
   17          0.890768000000        -0.971238324522
   18          0.063288000000         0.529256436645
   19          0.318968000000         4.999781536071
   20          0.148352000000        -8.741913392141
   21          0.068100000000         6.070246993588
   22          0.025100000000        -2.009573034383
 P 43
    1         18.648900000000        -0.000099636593
    2         11.667900000000         0.001003961818
    3          7.293490000000        -0.002332643770
    4          2.028490000000         0.003131936354
    5          1.040970000000         0.002756899740
    6          0.514190000000         0.000740949201
    7          0.228651000000         0.000045110747
    8          0.095828000000         0.000004472452
    9         18.648900000000         0.000229541902
   10         11.667900000000        -0.002312918363
   11          7.293490000000         0.005373924100
   12          2.028490000000        -0.007215327289
   13          1.040970000000        -0.006351321253
   14          0.514190000000        -0.001706992221
   15          0.228651000000        -0.000103925741
   16          0.095828000000        -0.000010303594
   17         18.648900000000         0.009416370751
   18         11.667900000000        -0.094881573474
   19          7.293490000000         0.220451522438
   20          2.028490000000        -0.295990389186
   21          1.040970000000        -0.260546746449
   22          0.514190000000        -0.070024999781
   23          0.228651000000        -0.004263288302
   24          0.095828000000        -0.000422678663
   25          0.039229000000         0.000014283264
   26         18.648900000000        -0.000021157199
   27         11.667900000000         0.000309977242
   28          7.293490000000        -0.000803002217
   29          2.028490000000         0.001373282089
   30          1.040970000000         0.001264657351
   31          0.514190000000         0.000037019967
   32          0.228651000000        -0.002530094502
   33          0.095828000000        -0.003740925149
   34          0.039229000000        -0.001569812147
   35         18.648900000000         0.000048741767
   36         11.667900000000        -0.000714122831
   37          7.293490000000         0.001849949409
   38          2.028490000000        -0.003163755138
   39          1.040970000000        -0.002913506427
   40          0.514190000000        -0.000085286273
   41          0.228651000000         0.005828809350
   42          0.095828000000         0.008618310294
   43          0.039229000000         0.003616519350
 P 43
    1         18.648900000000        -0.000311366410
    2         11.667900000000         0.003137401410
    3          7.293490000000        -0.007289559943
    4          2.028490000000         0.009787365770
    5          1.040970000000         0.008615368609
    6          0.514190000000         0.002315481552
    7          0.228651000000         0.000140972016
    8          0.095828000000         0.000013976503
    9         18.648900000000         0.000053601006
   10         11.667900000000        -0.000540096387
   11          7.293490000000         0.001254880863
   12          2.028490000000        -0.001684872351
   13          1.040970000000        -0.001483115754
   14          0.514190000000        -0.000398604787
   15          0.228651000000        -0.000024268006
   16          0.095828000000        -0.000002406023
   17         18.648900000000         0.003106068585
   18         11.667900000000        -0.031297479935
   19          7.293490000000         0.072717776988
   20          2.028490000000        -0.097634903463
   21          1.040970000000        -0.085943521704
   22          0.514190000000        -0.023098331376
   23          0.228651000000        -0.001406281275
   24          0.095828000000        -0.000139424089
   25          0.039229000000         0.000004711454
   26         18.648900000000        -0.000092367191
   27         11.667900000000         0.001353285350
   28          7.293490000000        -0.003505712639
   29          2.028490000000         0.005995416047
   30          1.040970000000         0.005521186826
   31          0.514190000000         0.000161620185
   32          0.228651000000        -0.011045778069
   33          0.095828000000        -0.016331970582
   34          0.039229000000        -0.006853418550
   35         18.648900000000         0.000015900798
   36         11.667900000000        -0.000232964939
   37          7.293490000000         0.000603500312
   38          2.028490000000        -0.001032096988
   39          1.040970000000        -0.000950459526
   40          0.514190000000        -0.000027822541
   41          0.228651000000         0.001901505114
   42          0.095828000000         0.002811510913
   43          0.039229000000         0.001179800132
 P 43
    1         18.648900000000        -0.000268729586
    2         11.667900000000         0.002707782715
    3          7.293490000000        -0.006291367229
    4          2.028490000000         0.008447137102
    5          1.040970000000         0.007435626862
    6          0.514190000000         0.001998412095
    7          0.228651000000         0.000121668075
    8          0.095828000000         0.000012062637
    9         18.648900000000        -0.000021031046
   10         11.667900000000         0.000211913777
   11          7.293490000000        -0.000492368676
   12          2.028490000000         0.000661081377
   13          1.040970000000         0.000581919577
   14          0.514190000000         0.000156397724
   15          0.228651000000         0.000009521865
   16         18.648900000000         0.000012228714
   17         11.667900000000        -0.000123219408
   18          7.293490000000         0.000286292744
   19          2.028490000000        -0.000384392449
   20          1.040970000000        -0.000338363020
   21          0.514190000000        -0.000090939038
   22          0.228651000000        -0.000005536585
   23         18.648900000000         0.001321911939
   24         11.667900000000        -0.019367527030
   25          7.293490000000         0.050171964319
   26          2.028490000000        -0.085803324743
   27          1.040970000000        -0.079016398938
   28          0.514190000000        -0.002313025341
   29          0.228651000000         0.158081520152
   30          0.095828000000         0.233734800800
   31          0.039229000000         0.098082617247
   32         18.648900000000         0.000103454147
   33         11.667900000000        -0.001515721989
   34          7.293490000000         0.003926507985
   35          2.028490000000        -0.006715053801
   36          1.040970000000        -0.006183902216
   37          0.514190000000        -0.000181019671
   38          0.228651000000         0.012371617487
   39          0.095828000000         0.018292318711
   40          0.039229000000         0.007676043484
   41         18.648900000000        -0.000060154460
   42         11.667900000000         0.000881331871
   43          7.293490000000        -0.002283107757
 P 43
    1         18.648900000000        -0.000536814392
    2         11.667900000000         0.005409068474
    3          7.293490000000        -0.012567639178
    4          2.028490000000         0.016874006449
    5          1.040970000000         0.014853412950
    6          0.514190000000         0.003992029272
    7          0.228651000000         0.000243044223
    8          0.095828000000         0.000024096331
    9         18.648900000000         0.001393812155
   10         11.667900000000        -0.014044380147
   11          7.293490000000         0.032631256751
   12          2.028490000000        -0.043812527483
   13          1.040970000000        -0.038566155884
   14          0.514190000000        -0.010365107583
   15          0.228651000000        -0.000631052368
   16          0.095828000000        -0.000062564939
   17         18.648900000000         0.056962845673
   18         11.667900000000        -0.573971073366
   19          7.293490000000         1.333586620941
   20          2.028490000000        -1.790547048983
   21          1.040970000000        -1.576136337604
   22          0.514190000000        -0.423605161837
   23          0.228651000000        -0.025790088349
   24          0.095828000000        -0.002556927724
   25          0.039229000000         0.000086404349
   26         18.648900000000         0.000181865496
   27         11.667900000000        -0.002664538239
   28          7.293490000000         0.006902539352
   29          2.028490000000        -0.011804617052
   30          1.040970000000        -0.010870887965
   31          0.514190000000        -0.000318220517
   32          0.228651000000         0.021748479024
   33          0.095828000000         0.032156677185
   34          0.039229000000         0.013493972868
   35         18.648900000000        -0.000472204812
   36         11.667900000000         0.006918342433
   37          7.293490000000        -0.017922103796
   38          2.028490000000         0.030650107345
   39          1.040970000000         0.028225725713
   40          0.514190000000         0.000826243916
   41          0.228651000000        -0.056468855682
   42          0.095828000000        -0.083493230086
   43          0.039229000000        -0.035036436599
 end
  // -----------------------------------------------
  // The basis set
  // -----------------------------------------------
  BAS[ATNO] = new BFNGauss[NSH];
  // Basis function   1 L = s
  InitBFNGauss(BAS[ATNO][  0]);
  BAS[ATNO][  0].l  = 0;
  BAS[ATNO][  0].ng = 22;
  BAS[ATNO][  0].a[  0] =       544.675000000000;     BAS[ATNO][  0].d[  0] =         0.000304732571;
  BAS[ATNO][  0].a[  1] =        36.512800000000;     BAS[ATNO][  0].d[  1] =         0.023131018206;
  BAS[ATNO][  0].a[  2] =        22.776100000000;     BAS[ATNO][  0].d[  2] =        -0.177170951892;
  BAS[ATNO][  0].a[  3] =        14.226200000000;     BAS[ATNO][  0].d[  3] =         0.521665885336;
  BAS[ATNO][  0].a[  4] =         6.895000000000;     BAS[ATNO][  0].d[  4] =        -0.831580835016;
  BAS[ATNO][  0].a[  5] =         4.309690000000;     BAS[ATNO][  0].d[  5] =        -0.194472884734;
  BAS[ATNO][  0].a[  6] =         1.800850000000;     BAS[ATNO][  0].d[  6] =         0.868271975688;
  BAS[ATNO][  0].a[  7] =         0.890768000000;     BAS[ATNO][  0].d[  7] =         0.508206066786;
  BAS[ATNO][  0].a[  8] =         0.063288000000;     BAS[ATNO][  0].d[  8] =         0.001004948882;
  BAS[ATNO][  0].a[  9] =       544.675000000000;     BAS[ATNO][  0].d[  9] =         0.000034500176;
  BAS[ATNO][  0].a[ 10] =        36.512800000000;     BAS[ATNO][  0].d[ 10] =         0.001972653784;
  BAS[ATNO][  0].a[ 11] =        22.776100000000;     BAS[ATNO][  0].d[ 11] =        -0.016410740337;
  BAS[ATNO][  0].a[ 12] =        14.226200000000;     BAS[ATNO][  0].d[ 12] =         0.052158828253;
  BAS[ATNO][  0].a[ 13] =         6.895000000000;     BAS[ATNO][  0].d[ 13] =        -0.094602549276;
  BAS[ATNO][  0].a[ 14] =         4.309690000000;     BAS[ATNO][  0].d[ 14] =        -0.014878554525;
  BAS[ATNO][  0].a[ 15] =         1.800850000000;     BAS[ATNO][  0].d[ 15] =         0.125608753674;
  BAS[ATNO][  0].a[ 16] =         0.890768000000;     BAS[ATNO][  0].d[ 16] =         0.105850787537;
  BAS[ATNO][  0].a[ 17] =         0.063288000000;     BAS[ATNO][  0].d[ 17] =        -0.057681219134;
  BAS[ATNO][  0].a[ 18] =         0.318968000000;     BAS[ATNO][  0].d[ 18] =        -0.246754609222;
  BAS[ATNO][  0].a[ 19] =         0.148352000000;     BAS[ATNO][  0].d[ 19] =         0.194900341579;
  BAS[ATNO][  0].a[ 20] =         0.068100000000;     BAS[ATNO][  0].d[ 20] =        -0.035050310704;
  BAS[ATNO][  0].a[ 21] =         0.025100000000;     BAS[ATNO][  0].d[ 21] =         0.023404900107;

FINAL SINGLE POINT ENERGY      -173.494929111003

DIPOLE MOMENT
-------------
                                X             Y             Z
Electronic contribution:      0.00000      -0.00000      -0.00000
Nuclear contribution   :      0.00000       0.00000       0.00000
                        -----------------------------------------
Total Dipole Moment    :      0.00000      -0.00000      -0.00000
                        -----------------------------------------
Magnitude (a.u.)       :      0.00000
Magnitude (Debye)      :      0.00000

Rotational constants in cm-1:     0.000000     0.000000     0.000000
Rotational constants in MHz :     0.000000     0.000000     0.000000

                             ****ORCA TERMINATED NORMALLY****
TOTAL RUN TIME: 0 days 0 hours 0 minutes 1 seconds 209 msec
