                         Program Version 4.2.0 -  RELEASE  -
|  1> #
|  2> # 83_Bi CCSD(T)/aug-cc-pVTZ-PP
|  3> #
|  4> ! CCSD(T) aug-cc-pVTZ-PP tightscf slowconv
|  5>
|  6> *xyz 0 4
|  7>  Bi 0.0 0.0 0.0
|  8> *
|  9>
| 10> %maxcore 5000
| 11>
| 12> %pal
| 13> nprocs 24
| 14> end
| 15>
| 16>
| 17>                          ****END OF INPUT****

CARTESIAN COORDINATES (ANGSTROEM)
---------------------------------
  Bi     0.000000    0.000000    0.000000

 Total Charge           Charge          ....    0
 Multiplicity           Mult            ....    4
 Number of Electrons    NEL             ....   23
 Basis Dimension        Dim             ....   55

ORBITAL ENERGIES
----------------
                 SPIN UP ORBITALS
  NO   OCC          E(Eh)            E(eV)
   0   1.0000      -6.685217      -181.9140
   1   1.0000      -4.259821      -115.9156
   2   1.0000      -4.259821      -115.9156
   3   1.0000      -4.259821      -115.9156
   4   1.0000      -1.314948       -35.7816
   5   1.0000      -1.314948       -35.7816
   6   1.0000      -1.314948       -35.7816
   7   1.0000      -1.314948       -35.7816
   8   1.0000      -1.314948       -35.7816
   9   1.0000      -0.779803       -21.2195
  10   1.0000      -0.319061        -8.6821
  11   1.0000      -0.319061        -8.6821
  12   1.0000      -0.319061        -8.6821
  13   0.0000       0.049037         1.3344
  14   0.0000       0.080282         2.1846
  15   0.0000       0.080282         2.1846
  16   0.0000       0.080282         2.1846
  17   0.0000       0.126754         3.4491

                 SPIN DOWN ORBITALS
  NO   OCC          E(Eh)            E(eV)
   0   1.0000      -6.673914      -181.6064
   1   1.0000      -4.251561      -115.6909
   2   1.0000      -4.251561      -115.6909
   3   1.0000      -4.251561      -115.6909
   4   1.0000      -1.301028       -35.4028
   5   1.0000      -1.301028       -35.4028
   6   1.0000      -1.301028       -35.4028
   7   1.0000      -1.301028       -35.4028
   8   1.0000      -1.301028       -35.4028
   9   1.0000      -0.577112       -15.7040
  10   0.0000       0.021696         0.5904
  11   0.0000       0.021696         0.5904
  12   0.0000       0.021696         0.5904
  13   0.0000       0.063033         1.7152
  14   0.0000       0.113616         3.0916

E(0)                                       ...   -213.594298316
E(0)                                       ...   -213.594298316
E(CORR)                                    ...     -0.153556331
E(TOT)                                     ...   -213.747854647
E(CCSD(T))                                 ...   -213.752511975

MULLIKEN ATOMIC CHARGES AND SPIN DENSITIES
------------------------------------------
   0 Bi:   -0.000000    3.000000
Sum of atomic charges       :   -0.0000000

LOEWDIN ATOMIC CHARGES AND SPIN DENSITIES
-----------------------------------------
   0 Bi:   -0.000000    3.000000

FINAL SINGLE POINT ENERGY      -213.752511975001

DIPOLE MOMENT
-------------
                                X             Y             Z
Electronic contribution:     -0.00000       0.00000       0.00000
Nuclear contribution   :      0.00000       0.00000       0.00000
                        -----------------------------------------
Total Dipole Moment    :     -0.00000       0.00000       0.00000
                        -----------------------------------------
Magnitude (a.u.)       :      0.00000
Magnitude (Debye)      :      0.00000

Rotational constants in cm-1:     0.000000     0.000000     0.000000
Rotational constants in MHz :     0.000000     0.000000     0.000000

                             ****ORCA TERMINATED NORMALLY****
TOTAL RUN TIME: 0 days 0 hours 0 minutes 17 seconds 750 msec
