                         Program Version 4.2.0 -  RELEASE  -
|  1> # input to generate an atomic fitting density for Bi
|  2> # this file is use internally by ORCA
|  3> #
|  4> # atomic ground state (S=4): 1s2 2s2 2p6 3s2 3p6 4s2 3d10 4p6 5s2 4d10 5p6 6s2 4f14 5d10 6p3
|  5> #
|  6> ! RHF AllowRHF def2-SVP def2/J  NoMulliken NoLoewdin NoMayer NoPrintMOs
|  7>
|  8> %output print[p_atomdensfit] 2 end
|  9>
| 10> %scf
| 11>   guess hcore
| 12>   maxiter 1000
| 13>   maxdisk 500000
| 14>   SCFMode Conventional
| 15>   lshift 1.000000
| 16>   hftyp rohf
| 17>   rohf_case sahf
| 18>   rohf_numop   2
| 19>   rohf_norb[1] 3
| 20>   rohf_nel[1]  3
| 21> end
| 22>
| 23> %basis
| 24>   NewECP 83
| 25>     N_core 60
| 26>     lmax h
| 27>     s 2
| 28>       1      13.0430900000    283.2642270000  2
| 29>       2       8.2216820000     62.4719590000  2
| 30>     p 4
| 31>       1      10.4677770000     72.0014990000  2
| 32>       2       9.1189010000    144.0022770000  2
| 33>       3       6.7547910000      5.0079450000  2
| 34>       4       6.2525920000      9.9915500000  2
| 35>     d 4
| 36>       1       8.0814740000     36.3962590000  2
| 37>       2       7.8905950000     54.5976640000  2
| 38>       3       4.9555560000      9.9842940000  2
| 39>       4       4.7045590000     14.9814850000  2
| 40>     f 2
| 41>       1       4.2145460000     13.7133830000  2
| 42>       2       4.1334000000     18.1943080000  2
| 43>     g 2
| 44>       1       6.2057090000    -10.2474430000  2
| 45>       2       6.2277820000    -12.9557100000  2
| 46>     h 1
| 47>       1       1.0000000000      0.0000000000  2
| 48>   end
| 49>   NewGTO 83
| 50>     s 9
| 51>      1     798.6330000000      0.0003984904
| 52>      2      95.0023000000      0.0021553308
| 53>      3      21.2520000000     -0.1328448001
| 54>      4      13.2919000000      0.6813457685
| 55>      5       8.3121000000     -0.7929056521
| 56>      6       5.1947600000     -0.4689145574
| 57>      7       1.9097200000      0.9230552642
| 58>      8       0.9622710000      0.5578188816
| 59>      9       0.0732650000      0.0010612751
| 60>     s 9
| 61>      1     798.6330000000     -0.0002501579
| 62>      2      95.0023000000     -0.0011591086
| 63>      3      21.2520000000      0.0721044142
| 64>      4      13.2919000000     -0.3960693782
| 65>      5       8.3121000000      0.5192845885
| 66>      6       5.1947600000      0.2335544921
| 67>      7       1.9097200000     -0.7471902270
| 68>      8       0.9622710000     -0.6276985712
| 69>      9       0.0732650000      0.3033302112
| 70>     s 1
| 71>      1       0.3560260000      1.0000000000
| 72>     s 1
| 73>      1       0.1683270000      1.0000000000
| 74>     s 1
| 75>      1       0.0784000000      1.0000000000
| 76>     s 1
| 77>      1       0.0297000000      1.0000000000
| 78>     p 9
| 79>      1      19.2259000000     -0.0161519958
| 80>      2      12.0378000000      0.1760309541
| 81>      3       7.5362100000     -0.4201028906
| 82>      4       2.1608400000      0.5526738560
| 83>      5       1.1303600000      0.4995618699
| 84>      6       0.5667780000      0.1344949650
| 85>      7       0.2716080000      0.0080459979
| 86>      8       0.1177690000      0.0010309997
| 87>      9       0.0493040000     -0.0001620000
| 88>     p 9
| 89>      1      19.2259000000      0.0027329996
| 90>      2      12.0378000000     -0.0488429935
| 91>      3       7.5362100000      0.1318399825
| 92>      4       2.1608400000     -0.2252709701
| 93>      5       1.1303600000     -0.2078759724
| 94>      6       0.5667780000     -0.0155849979
| 95>      7       0.2716080000      0.3938489477
| 96>      8       0.1177690000      0.5508799269
| 97>      9       0.0493040000      0.2111499720
| 98>     p 1
| 99>      1       0.4469000000      1.0000000000
|100>     p 1
|101>      1       0.0743000000      1.0000000000
|102>     p 1
|103>      1       0.0276000000      1.0000000000
|104>   end
|105>   NewAuxGTO 83
|106>     S 1
|107>      1 1310.72 1.0
|108>     S 1
|109>      1  655.36 1.0
|110>     S 1
|111>      1  327.68 1.0
|112>     S 1
|113>      1  163.84 1.0
|114>     S 1
|115>      1   81.82 1.0
|116>     S 1
|117>      1   40.96 1.0
|118>     S 1
|119>      1   20.48 1.0
|120>     S 1
|121>      1   10.24 1.0
|122>     S 1
|123>      1    5.12 1.0
|124>     S 1
|125>      1    2.56 1.0
|126>     S 1
|127>      1    1.28 1.0
|128>     S 1
|129>      1    0.64 1.0
|130>     S 1
|131>      1    0.32 1.0
|132>     S 1
|133>      1    0.16 1.0
|134>     S 1
|135>      1    0.08 1.0
|136>     S 1
|137>      1    0.04 1.0
|138>     S 1
|139>      1    0.02 1.0
|140>     S 1
|141>      1    0.01 1.0
|142>   end
|143> end
|144>
|145> * xyz 0 4
|146> 83  0.0 0.0 0.0
|147> *
|148>
|149>
|150>                          ****END OF INPUT****

CARTESIAN COORDINATES (ANGSTROEM)
---------------------------------
  Bi     0.000000    0.000000    0.000000

 Total Charge           Charge          ....    0
 Multiplicity           Mult            ....    4
 Number of Electrons    NEL             ....   23
 Basis Dimension        Dim             ....   21

ORBITAL ENERGIES
----------------

  NO   OCC          E(Eh)            E(eV)
   0   2.0000     -10.464202      -284.7454
   1   2.0000      -7.689276      -209.2358
   2   2.0000      -7.689276      -209.2358
   3   2.0000      -7.683936      -209.0905
   4   2.0000      -2.768721       -75.3407
   5   2.0000      -1.732150       -47.1342
   6   2.0000      -1.732150       -47.1342
   7   2.0000      -1.718825       -46.7716
   8   2.0000      -0.558698       -15.2029
   9   2.0000      -0.252740        -6.8774
  10   1.0000      -0.301580        -8.2064
  11   1.0000      -0.301580        -8.2064
  12   1.0000      -0.091377        -2.4865
  13   0.0000       0.068431         1.8621
  14   0.0000       0.068431         1.8621
  15   0.0000       0.081144         2.2080
  16   0.0000       0.392445        10.6790
  17   0.0000       2.015699        54.8500

CleanUpVectors: The p-vectors have cracked symmetry
CleanUpVectors: The p-vectors have cracked symmetry
CleanUpVectors: The p-vectors have cracked symmetry
CleanUpVectors: The p-vectors have cracked symmetry
CleanUpVectors: The p-vectors have cracked symmetry
CleanUpVectors: The p-vectors have cracked symmetry
CleanUpVectors: The p-vectors have cracked symmetry
CleanUpVectors: The p-vectors have cracked symmetry
CleanUpVectors: The p-vectors have cracked symmetry
CleanUpVectors: The p-vectors have cracked symmetry
CleanUpVectors: The p-vectors have cracked symmetry
CleanUpVectors: The p-vectors have cracked symmetry
CleanUpVectors: The p-vectors have cracked symmetry
CleanUpVectors: The p-vectors have cracked symmetry
--------------------------
ATOM BASIS FOR ELEMENT Bi
--------------------------
 NewGTO Bi
 S 22
    1        798.633000000000         0.000370230224
    2         95.002300000000         0.002002478868
    3         21.252000000000        -0.123423701343
    4         13.291900000000         0.633026031724
    5          8.312100000000        -0.736674302073
    6          5.194760000000        -0.435660035201
    7          1.909720000000         0.857593952986
    8          0.962271000000         0.518259435026
    9          0.073265000000         0.000986011503
   10        798.633000000000         0.000045043810
   11         95.002300000000         0.000208710851
   12         21.252000000000        -0.012983230055
   13         13.291900000000         0.071316852262
   14          8.312100000000        -0.093503169693
   15          5.194760000000        -0.042054175670
   16          1.909720000000         0.134540204227
   17          0.962271000000         0.113024355660
   18          0.073265000000        -0.054618097358
   19          0.356026000000        -0.259642562195
   20          0.168327000000         0.206763063672
   21          0.078400000000        -0.043825399606
   22          0.029700000000         0.024468442642
 P 43
    1         19.225900000000         0.018311762682
    2         12.037800000000        -0.199568963242
    3          7.536210000000         0.476277020487
    4          2.160840000000        -0.626574735205
    5          1.130360000000        -0.566360870798
    6          0.566778000000        -0.152478982254
    7          0.271608000000        -0.009121869886
    8          0.117769000000        -0.001168860001
    9          0.049304000000         0.000183661858
   10         19.225900000000         0.004047727921
   11         12.037800000000        -0.044113768773
   12          7.536210000000         0.105278766861
   13          2.160840000000        -0.138501360828
   14          1.130360000000        -0.125191372900
   15          0.566778000000        -0.033704752766
   16          0.271608000000        -0.002016345891
   17          0.117769000000        -0.000258370936
   18          0.049304000000         0.000040597579
   19         19.225900000000         0.001318490602
   20         12.037800000000        -0.014369441496
   21          7.536210000000         0.034293081804
   22          2.160840000000        -0.045114875852
   23          1.130360000000        -0.040779333953
   24          0.566778000000        -0.010978850515
   25          0.271608000000        -0.000656796395
   26          0.117769000000        -0.000084160709
   27          0.049304000000         0.000013224092
   28         19.225900000000        -0.000212250233
   29         12.037800000000         0.003793244878
   30          7.536210000000        -0.010238957577
   31          2.160840000000         0.017494995542
   32          1.130360000000         0.016144065118
   33          0.566778000000         0.001210362208
   34          0.271608000000        -0.030587099533
   35          0.117769000000        -0.042782440458
   36          0.049304000000        -0.016398330496
   37         19.225900000000        -0.000046916903
   38         12.037800000000         0.000838478713
   39          7.536210000000        -0.002263272804
   40          2.160840000000         0.003867185436
   41          1.130360000000         0.003568568700
   42          0.566778000000         0.000267544801
   43          0.271608000000        -0.006761132665
 S 22
    1        798.633000000000        -0.000143203700
    2         95.002300000000        -0.000774551519
    3         21.252000000000         0.047739837289
    4         13.291900000000        -0.244852159071
    5          8.312100000000         0.284942931815
    6          5.194760000000         0.168511711832
    7          1.909720000000        -0.331714211536
    8          0.962271000000        -0.200460858267
    9          0.073265000000        -0.000381385651
   10        798.633000000000         0.000427276479
   11         95.002300000000         0.001979788932
   12         21.252000000000        -0.123156295432
   13         13.291900000000         0.676497242152
   14          8.312100000000        -0.886952163807
   15          5.194760000000        -0.398917408147
   16          1.909720000000         1.276221176769
   17          0.962271000000         1.072126187208
   18          0.073265000000        -0.518096229178
   19          0.356026000000        -2.342261704462
   20          0.168327000000         0.871073877997
   21          0.078400000000         0.091541398890
   22          0.029700000000         0.121234495106
 P 43
    1         19.225900000000         0.007076952501
    2         12.037800000000        -0.077127478013
    3          7.536210000000         0.184066925181
    4          2.160840000000        -0.242152528769
    5          1.130360000000        -0.218881658250
    6          0.566778000000        -0.058928598717
    7          0.271608000000        -0.003525331833
    8          0.117769000000        -0.000451729681
    9          0.049304000000         0.000070979854
   10         19.225900000000         0.001544943232
   11         12.037800000000        -0.016837413440
   12          7.536210000000         0.040182967209
   13          2.160840000000        -0.052863419724
   14          1.130360000000        -0.047783242358
   15          0.566778000000        -0.012864483652
   16          0.271608000000        -0.000769602107
   17          0.117769000000        -0.000098615430
   18          0.049304000000         0.000015495348
   19         19.225900000000         0.000804570030
   20         12.037800000000        -0.008768528160
   21          7.536210000000         0.020926342444
   22          2.160840000000        -0.027530023310
   23          1.130360000000        -0.024884386648
   24          0.566778000000        -0.006699519945
   25          0.271608000000        -0.000400790642
   26          0.117769000000        -0.000051356592
   27          0.049304000000         0.000008069612
   28         19.225900000000         0.002429501058
   29         12.037800000000        -0.043418998079
   30          7.536210000000         0.117199203749
   31          2.160840000000        -0.200254716534
   32          1.130360000000        -0.184791426559
   33          0.566778000000        -0.013854289948
   34          0.271608000000         0.350112175323
   35          0.117769000000         0.489704925391
   36          0.049304000000         0.187701849778
   37         19.225900000000         0.000530375358
   38         12.037800000000        -0.009478640306
   39          7.536210000000         0.025585323145
   40          2.160840000000        -0.043716863853
   41          1.130360000000        -0.040341130415
   42          0.566778000000        -0.003024478614
   43          0.271608000000         0.076431689434
 S 22
    1        798.633000000000        -0.000261274896
    2         95.002300000000        -0.001413167874
    3         21.252000000000         0.087101248551
    4         13.291900000000        -0.446732330409
    5          8.312100000000         0.519877874250
    6          5.194760000000         0.307449319676
    7          1.909720000000        -0.605211991233
    8          0.962271000000        -0.365740480742
    9          0.073265000000        -0.000695837445
   10        798.633000000000         0.000419563917
   11         95.002300000000         0.001944052713
   12         21.252000000000        -0.120933260335
   13         13.291900000000         0.664286115574
   14          8.312100000000        -0.870942216588
   15          5.194760000000        -0.391716741741
   16          1.909720000000         1.253184721689
   17          0.962271000000         1.052773752692
   18          0.073265000000        -0.508744323154
   19          0.356026000000        -5.353591787366
   20          0.168327000000         9.329156227088
   21          0.078400000000        -6.549699306925
   22          0.029700000000         2.163153988244
 P 43
    1         19.225900000000        -0.000684395399
    2         12.037800000000         0.007458816646
    3          7.536210000000        -0.017800678575
    4          2.160840000000         0.023418000418
    5          1.130360000000         0.021167529369
    6          0.566778000000         0.005698845915
    7          0.271608000000         0.000340926534
    8          0.117769000000         0.000043685713
    9          0.049304000000        -0.000006864294
   10         19.225900000000        -0.000629466416
   11         12.037800000000         0.006860178472
   12          7.536210000000        -0.016372011507
   13          2.160840000000         0.021538491956
   14          1.130360000000         0.019468641767
   15          0.566778000000         0.005241461470
   16          0.271608000000         0.000313564065
   17          0.117769000000         0.000040179535
   18          0.049304000000        -0.000006313372
   19         19.225900000000         0.007228610807
   20         12.037800000000        -0.078780311294
   21          7.536210000000         0.188011458930
   22          2.160840000000        -0.247341830547
   23          1.130360000000        -0.223572267859
   24          0.566778000000        -0.060191432038
   25          0.271608000000        -0.003600879303
   26          0.117769000000        -0.000461410198
   27          0.049304000000         0.000072500944
   28         19.225900000000        -0.000234951322
   29         12.037800000000         0.004198948986
   30          7.536210000000        -0.011334058811
   31          2.160840000000         0.019366161730
   32          1.130360000000         0.017870743396
   33          0.566778000000         0.001339815733
   34          0.271608000000        -0.033858523426
   35          0.117769000000        -0.047358209331
   36          0.049304000000        -0.018152203567
   37         19.225900000000        -0.000216094332
   38         12.037800000000         0.003861944972
   39          7.536210000000        -0.010424397053
   40          2.160840000000         0.017811850337
   41          1.130360000000         0.016436452986
   42          0.566778000000         0.001232283281
   43          0.271608000000        -0.031141067617
 P 43
    1         19.225900000000        -0.000129682938
    2         12.037800000000         0.001413336879
    3          7.536210000000        -0.003372968755
    4          2.160840000000         0.004437369249
    5          1.130360000000         0.004010937835
    6          0.566778000000         0.001079848115
    7          0.271608000000         0.000064600602
    8          0.117769000000         0.000008277805
    9         19.225900000000        -0.000149445804
   10         12.037800000000         0.001628720548
   11          7.536210000000        -0.003886988022
   12          2.160840000000         0.005113596470
   13          1.130360000000         0.004622179585
   14          0.566778000000         0.001244410190
   15          0.271608000000         0.000074445328
   16          0.117769000000         0.000009539290
   17         19.225900000000         0.001828915883
   18         12.037800000000        -0.019932261742
   19          7.536210000000         0.047568910916
   20          2.160840000000        -0.062580129796
   21          1.130360000000        -0.056566176091
   22          0.566778000000        -0.015229076381
   23          0.271608000000        -0.000911060995
   24          0.117769000000        -0.000116741717
   25          0.049304000000         0.000018343515
   26         19.225900000000        -0.000100981260
   27         12.037800000000         0.001804693643
   28          7.536210000000        -0.004871338983
   29          2.160840000000         0.008323508830
   30          1.130360000000         0.007680783241
   31          0.566778000000         0.000575848133
   32          0.271608000000        -0.014552275388
   33          0.117769000000        -0.020354393350
   34          0.049304000000        -0.007801753841
   35         19.225900000000        -0.000116370170
   36         12.037800000000         0.002079717627
   37          7.536210000000        -0.005613700468
   38          2.160840000000         0.009591959331
   39          1.130360000000         0.008851286397
   40          0.566778000000         0.000663603774
   41          0.271608000000        -0.016769950817
   42          0.117769000000        -0.023456275138
   43          0.049304000000        -0.008990692158
 P 43
    1         19.225900000000        -0.000773961392
    2         12.037800000000         0.008434942900
    3          7.536210000000        -0.020130231711
    4          2.160840000000         0.026482685625
    5          1.130360000000         0.023937698169
    6          0.566778000000         0.006444646942
    7          0.271608000000         0.000385543175
    8          0.117769000000         0.000049402809
    9          0.049304000000        -0.000007762616
   10         19.225900000000        -0.000187375149
   11         12.037800000000         0.002042089829
   12          7.536210000000        -0.004873505596
   13          2.160840000000         0.006411427273
   14          1.130360000000         0.005795288781
   15          0.566778000000         0.001560241501
   16          0.271608000000         0.000093339552
   17          0.117769000000         0.000011960362
   18         19.225900000000         0.000192275336
   19         12.037800000000        -0.002095494032
   20          7.536210000000         0.005000956250
   21          2.160840000000        -0.006579097255
   22          1.130360000000        -0.005946845669
   23          0.566778000000        -0.001601044532
   24          0.271608000000        -0.000095780544
   25          0.117769000000        -0.000012273147
   26         19.225900000000         0.001467764688
   27         12.037800000000        -0.026231259278
   28          7.536210000000         0.070805012478
   29          2.160840000000        -0.120982372315
   30          1.130360000000        -0.111640342637
   31          0.566778000000        -0.008369964482
   32          0.271608000000         0.211517622556
   33          0.117769000000         0.295851526663
   34          0.049304000000         0.113398652811
   35         19.225900000000         0.000355344117
   36         12.037800000000        -0.006350557248
   37          7.536210000000         0.017141810859
   38          2.160840000000        -0.029289691096
   39          1.130360000000        -0.027027996618
   40          0.566778000000        -0.002026358629
   41          0.271608000000         0.051208169484
   42          0.117769000000         0.071625309213
   43          0.049304000000         0.027453681458
 P 43
    1         19.225900000000         0.002467154711
    2         12.037800000000        -0.026888045478
    3          7.536210000000         0.064169087111
    4          2.160840000000        -0.084418787881
    5          1.130360000000        -0.076306138006
    6          0.566778000000        -0.020543584246
    7          0.271608000000        -0.001228994972
    8          0.117769000000        -0.000157481205
    9          0.049304000000         0.000024744872
   10         19.225900000000        -0.003503476813
   11         12.037800000000         0.038182301045
   12          7.536210000000        -0.091123150020
   13          2.160840000000         0.119878686435
   14          1.130360000000         0.108358338478
   15          0.566778000000         0.029172864903
   16          0.271608000000         0.001745231204
   17          0.117769000000         0.000223630788
   18          0.049304000000        -0.000035138892
   19         19.225900000000         0.061800212268
   20         12.037800000000        -0.673523598184
   21          7.536210000000         1.607383269215
   22          2.160840000000        -2.114621749444
   23          1.130360000000        -1.911406490129
   24          0.566778000000        -0.514600021499
   25          0.271608000000        -0.030785321163
   26          0.117769000000        -0.003944775686
   27          0.049304000000         0.000619838843
   28         19.225900000000        -0.000695915838
   29         12.037800000000         0.012437108568
   30          7.536210000000        -0.033571000842
   31          2.160840000000         0.057361748564
   32          1.130360000000         0.052932382970
   33          0.566778000000         0.003968477299
   34          0.271608000000        -0.100287508418
   35          0.117769000000        -0.140273004737
   36          0.049304000000        -0.053766056043
   37         19.225900000000         0.000988233527
   38         12.037800000000        -0.017661284597
   39          7.536210000000         0.047672414924
   40          2.160840000000        -0.081456406117
   41          1.130360000000        -0.075166496696
   42          0.566778000000        -0.005635426161
   43          0.271608000000         0.142413022939
 end
  // -----------------------------------------------
  // The basis set
  // -----------------------------------------------
  BAS[ATNO] = new BFNGauss[NSH];
  // Basis function   1 L = s
  InitBFNGauss(BAS[ATNO][  0]);
  BAS[ATNO][  0].l  = 0;
  BAS[ATNO][  0].ng = 22;
  BAS[ATNO][  0].a[  0] =       798.633000000000;     BAS[ATNO][  0].d[  0] =         0.000370230224;
  BAS[ATNO][  0].a[  1] =        95.002300000000;     BAS[ATNO][  0].d[  1] =         0.002002478868;
  BAS[ATNO][  0].a[  2] =        21.252000000000;     BAS[ATNO][  0].d[  2] =        -0.123423701343;
  BAS[ATNO][  0].a[  3] =        13.291900000000;     BAS[ATNO][  0].d[  3] =         0.633026031724;
  BAS[ATNO][  0].a[  4] =         8.312100000000;     BAS[ATNO][  0].d[  4] =        -0.736674302073;
  BAS[ATNO][  0].a[  5] =         5.194760000000;     BAS[ATNO][  0].d[  5] =        -0.435660035201;
  BAS[ATNO][  0].a[  6] =         1.909720000000;     BAS[ATNO][  0].d[  6] =         0.857593952986;
  BAS[ATNO][  0].a[  7] =         0.962271000000;     BAS[ATNO][  0].d[  7] =         0.518259435026;
  BAS[ATNO][  0].a[  8] =         0.073265000000;     BAS[ATNO][  0].d[  8] =         0.000986011503;
  BAS[ATNO][  0].a[  9] =       798.633000000000;     BAS[ATNO][  0].d[  9] =         0.000045043810;
  BAS[ATNO][  0].a[ 10] =        95.002300000000;     BAS[ATNO][  0].d[ 10] =         0.000208710851;
  BAS[ATNO][  0].a[ 11] =        21.252000000000;     BAS[ATNO][  0].d[ 11] =        -0.012983230055;
  BAS[ATNO][  0].a[ 12] =        13.291900000000;     BAS[ATNO][  0].d[ 12] =         0.071316852262;
  BAS[ATNO][  0].a[ 13] =         8.312100000000;     BAS[ATNO][  0].d[ 13] =        -0.093503169693;
  BAS[ATNO][  0].a[ 14] =         5.194760000000;     BAS[ATNO][  0].d[ 14] =        -0.042054175670;
  BAS[ATNO][  0].a[ 15] =         1.909720000000;     BAS[ATNO][  0].d[ 15] =         0.134540204227;
  BAS[ATNO][  0].a[ 16] =         0.962271000000;     BAS[ATNO][  0].d[ 16] =         0.113024355660;
  BAS[ATNO][  0].a[ 17] =         0.073265000000;     BAS[ATNO][  0].d[ 17] =        -0.054618097358;
  BAS[ATNO][  0].a[ 18] =         0.356026000000;     BAS[ATNO][  0].d[ 18] =        -0.259642562195;
  BAS[ATNO][  0].a[ 19] =         0.168327000000;     BAS[ATNO][  0].d[ 19] =         0.206763063672;
  BAS[ATNO][  0].a[ 20] =         0.078400000000;     BAS[ATNO][  0].d[ 20] =        -0.043825399606;
  BAS[ATNO][  0].a[ 21] =         0.029700000000;     BAS[ATNO][  0].d[ 21] =         0.024468442642;

FINAL SINGLE POINT ENERGY      -191.554681367100

DIPOLE MOMENT
-------------
                                X             Y             Z
Electronic contribution:      0.00000      -0.00000       0.00000
Nuclear contribution   :      0.00000       0.00000       0.00000
                        -----------------------------------------
Total Dipole Moment    :      0.00000      -0.00000       0.00000
                        -----------------------------------------
Magnitude (a.u.)       :      0.00000
Magnitude (Debye)      :      0.00000

Rotational constants in cm-1:     0.000000     0.000000     0.000000
Rotational constants in MHz :     0.000000     0.000000     0.000000

                             ****ORCA TERMINATED NORMALLY****
TOTAL RUN TIME: 0 days 0 hours 0 minutes 1 seconds 151 msec
