                         Program Version 4.2.0 -  RELEASE  -
|  1> #
|  2> # 84_Po CCSD(T)/aug-cc-pVTZ-PP
|  3> #
|  4> ! CCSD(T) aug-cc-pVTZ-PP tightscf slowconv
|  5>
|  6> *xyz 0 3
|  7>  Po 0.0 0.0 0.0
|  8> *
|  9>
| 10> %maxcore 5000
| 11>
| 12> %pal
| 13> nprocs 24
| 14> end
| 15>
| 16>
| 17>                          ****END OF INPUT****

CARTESIAN COORDINATES (ANGSTROEM)
---------------------------------
  Po     0.000000    0.000000    0.000000

 Total Charge           Charge          ....    0
 Multiplicity           Mult            ....    3
 Number of Electrons    NEL             ....   24
 Basis Dimension        Dim             ....   55

ORBITAL ENERGIES
----------------
                 SPIN UP ORBITALS
  NO   OCC          E(Eh)            E(eV)
   0   1.0000      -7.246288      -197.1815
   1   1.0000      -4.688239      -127.5735
   2   1.0000      -4.688239      -127.5735
   3   1.0000      -4.669019      -127.0505
   4   1.0000      -1.581635       -43.0385
   5   1.0000      -1.581635       -43.0385
   6   1.0000      -1.564119       -42.5619
   7   1.0000      -1.564119       -42.5619
   8   1.0000      -1.558643       -42.4128
   9   1.0000      -0.882948       -24.0262
  10   1.0000      -0.377061       -10.2604
  11   1.0000      -0.377061       -10.2604
  12   1.0000      -0.326151        -8.8750
  13   0.0000       0.054337         1.4786
  14   0.0000       0.084609         2.3023
  15   0.0000       0.084609         2.3023
  16   0.0000       0.093320         2.5394
  17   0.0000       0.140243         3.8162

                 SPIN DOWN ORBITALS
  NO   OCC          E(Eh)            E(eV)
   0   1.0000      -7.235119      -196.8776
   1   1.0000      -4.674971      -127.2124
   2   1.0000      -4.674971      -127.2124
   3   1.0000      -4.669336      -127.0591
   4   1.0000      -1.564580       -42.5744
   5   1.0000      -1.564580       -42.5744
   6   1.0000      -1.555167       -42.3183
   7   1.0000      -1.555167       -42.3183
   8   1.0000      -1.552324       -42.2409
   9   1.0000      -0.733439       -19.9579
  10   1.0000      -0.292275        -7.9532
  11   0.0000      -0.009839        -0.2677
  12   0.0000      -0.009839        -0.2677
  13   0.0000       0.063001         1.7143
  14   0.0000       0.095439         2.5970
  15   0.0000       0.106769         2.9053

E(0)                                       ...   -236.726159974
E(0)                                       ...   -236.726159974
E(CORR)                                    ...     -0.172556536
E(TOT)                                     ...   -236.898716510
E(CCSD(T))                                 ...   -236.903708038

MULLIKEN ATOMIC CHARGES AND SPIN DENSITIES
------------------------------------------
   0 Po:   -0.000000    2.000000
Sum of atomic charges       :   -0.0000000

LOEWDIN ATOMIC CHARGES AND SPIN DENSITIES
-----------------------------------------
   0 Po:   -0.000000    2.000000

FINAL SINGLE POINT ENERGY      -236.903708038338

DIPOLE MOMENT
-------------
                                X             Y             Z
Electronic contribution:     -0.00000      -0.00000       0.00000
Nuclear contribution   :      0.00000       0.00000       0.00000
                        -----------------------------------------
Total Dipole Moment    :     -0.00000      -0.00000       0.00000
                        -----------------------------------------
Magnitude (a.u.)       :      0.00000
Magnitude (Debye)      :      0.00000

Rotational constants in cm-1:     0.000000     0.000000     0.000000
Rotational constants in MHz :     0.000000     0.000000     0.000000

                             ****ORCA TERMINATED NORMALLY****
TOTAL RUN TIME: 0 days 0 hours 0 minutes 18 seconds 609 msec
