                         Program Version 4.2.0 -  RELEASE  -
|  1> # input to generate an atomic fitting density for Po
|  2> # this file is use internally by ORCA
|  3> #
|  4> # atomic ground state (S=3): 1s2 2s2 2p6 3s2 3p6 4s2 3d10 4p6 5s2 4d10 5p6 6s2 4f14 5d10 6p4
|  5> #
|  6> ! RHF AllowRHF def2-SVP def2/J  NoMulliken NoLoewdin NoMayer NoPrintMOs
|  7>
|  8> %output print[p_atomdensfit] 2 end
|  9>
| 10> %scf
| 11>   guess hcore
| 12>   maxiter 1000
| 13>   maxdisk 500000
| 14>   SCFMode Conventional
| 15>   lshift 1.000000
| 16>   hftyp rohf
| 17>   rohf_case sahf
| 18>   rohf_numop   2
| 19>   rohf_norb[1] 3
| 20>   rohf_nel[1]  4
| 21> end
| 22>
| 23> %basis
| 24>   NewECP 84
| 25>     N_core 60
| 26>     lmax h
| 27>     s 2
| 28>       1      13.2772270000    283.2447060000  2
| 29>       2       8.3995180000     62.3964610000  2
| 30>     p 4
| 31>       1      10.6656820000     71.9917160000  2
| 32>       2       9.2837530000    143.9718710000  2
| 33>       3       6.8727490000      4.9496150000  2
| 34>       4       6.3261500000      9.7404990000  2
| 35>     d 4
| 36>       1       8.2148660000     36.3783830000  2
| 37>       2       8.0086960000     54.5627150000  2
| 38>       3       5.0552270000      9.8894990000  2
| 39>       4       4.7825530000     14.6938770000  2
| 40>     f 4
| 41>       1       5.0132700000     17.4282950000  2
| 42>       2       4.9846400000     23.3803530000  2
| 43>       3       1.3267600000      0.1633920000  2
| 44>       4       1.5287580000      0.3245660000  2
| 45>     g 2
| 46>       1       6.7715260000    -11.5632940000  2
| 47>       2       6.7779250000    -14.5097880000  2
| 48>     h 1
| 49>       1       1.0000000000      0.0000000000  2
| 50>   end
| 51>   NewGTO 84
| 52>     s 9
| 53>      1    2284.7600000000      0.0002402581
| 54>      2     345.7740000000      0.0012124890
| 55>      3      40.9204000000      0.0273812801
| 56>      4      25.5771000000     -0.1729746399
| 57>      5      15.9942000000      0.4636665907
| 58>      6       6.7938300000     -0.9923952808
| 59>      7       1.9270900000      0.9338089518
| 60>      8       0.9970320000      0.5117324650
| 61>      9       0.0735360000      0.0013865743
| 62>     s 9
| 63>      1    2284.7600000000      0.0001419407
| 64>      2     345.7740000000      0.0008454185
| 65>      3      40.9204000000      0.0093182803
| 66>      4      25.5771000000     -0.0720050065
| 67>      5      15.9942000000      0.2294421086
| 68>      6       6.7938300000     -0.5872072962
| 69>      7       1.9270900000      0.8287890672
| 70>      8       0.9970320000      0.5219457165
| 71>      9       0.0735360000     -0.1816217997
| 72>     s 1
| 73>      1       0.3403500000      1.0000000000
| 74>     s 1
| 75>      1       0.1617240000      1.0000000000
| 76>     s 1
| 77>      1       0.0875000000      1.0000000000
| 78>     s 1
| 79>      1       0.0339000000      1.0000000000
| 80>     p 9
| 81>      1      19.7714000000     -0.0144909986
| 82>      2      12.3921000000      0.1732689828
| 83>      3       7.7740700000     -0.4241669578
| 84>      4       2.2913100000      0.5524089451
| 85>      5       1.2059400000      0.5120889491
| 86>      6       0.5946110000      0.1278369873
| 87>      7       0.2986450000      0.0052539995
| 88>      8       0.1297420000      0.0020099998
| 89>      9       0.0539350000     -0.0001320000
| 90>     p 9
| 91>      1      19.7714000000      0.0021050004
| 92>      2      12.3921000000     -0.0508490100
| 93>      3       7.7740700000      0.1432890281
| 94>      4       2.2913100000     -0.2470410484
| 95>      5       1.2059400000     -0.2322350455
| 96>      6       0.5946110000      0.0071000014
| 97>      7       0.2986450000      0.4246290832
| 98>      8       0.1297420000      0.5319741043
| 99>      9       0.0539350000      0.1972940387
|100>     p 1
|101>      1       0.4953000000      1.0000000000
|102>     p 1
|103>      1       0.0797000000      1.0000000000
|104>     p 1
|105>      1       0.0310000000      1.0000000000
|106>   end
|107>   NewAuxGTO 84
|108>     S 1
|109>      1 1310.72 1.0
|110>     S 1
|111>      1  655.36 1.0
|112>     S 1
|113>      1  327.68 1.0
|114>     S 1
|115>      1  163.84 1.0
|116>     S 1
|117>      1   81.82 1.0
|118>     S 1
|119>      1   40.96 1.0
|120>     S 1
|121>      1   20.48 1.0
|122>     S 1
|123>      1   10.24 1.0
|124>     S 1
|125>      1    5.12 1.0
|126>     S 1
|127>      1    2.56 1.0
|128>     S 1
|129>      1    1.28 1.0
|130>     S 1
|131>      1    0.64 1.0
|132>     S 1
|133>      1    0.32 1.0
|134>     S 1
|135>      1    0.16 1.0
|136>     S 1
|137>      1    0.08 1.0
|138>     S 1
|139>      1    0.04 1.0
|140>     S 1
|141>      1    0.02 1.0
|142>     S 1
|143>      1    0.01 1.0
|144>   end
|145> end
|146>
|147> * xyz 0 3
|148> 84  0.0 0.0 0.0
|149> *
|150>
|151>
|152>                          ****END OF INPUT****

CARTESIAN COORDINATES (ANGSTROEM)
---------------------------------
  Po     0.000000    0.000000    0.000000

 Total Charge           Charge          ....    0
 Multiplicity           Mult            ....    3
 Number of Electrons    NEL             ....   24
 Basis Dimension        Dim             ....   21

ORBITAL ENERGIES
----------------

  NO   OCC          E(Eh)            E(eV)
   0   2.0000     -11.396104      -310.1038
   1   2.0000      -8.463256      -230.2969
   2   2.0000      -8.463256      -230.2969
   3   2.0000      -8.459345      -230.1905
   4   2.0000      -3.115334       -84.7725
   5   2.0000      -2.007936       -54.6387
   6   2.0000      -2.007936       -54.6387
   7   2.0000      -1.998267       -54.3756
   8   2.0000      -0.654932       -17.8216
   9   2.0000      -0.308342        -8.3904
  10   1.3333      -0.328171        -8.9300
  11   1.3333      -0.328171        -8.9300
  12   1.3333      -0.090159        -2.4533
  13   0.0000       0.045851         1.2477
  14   0.0000       0.045851         1.2477
  15   0.0000       0.053892         1.4665
  16   0.0000       0.338016         9.1979
  17   0.0000       2.225897        60.5697

CleanUpVectors: The p-vectors have cracked symmetry
CleanUpVectors: The p-vectors have cracked symmetry
CleanUpVectors: The p-vectors have cracked symmetry
CleanUpVectors: The p-vectors have cracked symmetry
CleanUpVectors: The p-vectors have cracked symmetry
CleanUpVectors: The p-vectors have cracked symmetry
CleanUpVectors: The p-vectors have cracked symmetry
CleanUpVectors: The p-vectors have cracked symmetry
CleanUpVectors: The p-vectors have cracked symmetry
CleanUpVectors: The p-vectors have cracked symmetry
CleanUpVectors: The p-vectors have cracked symmetry
CleanUpVectors: The p-vectors have cracked symmetry
CleanUpVectors: The p-vectors have cracked symmetry
CleanUpVectors: The p-vectors have cracked symmetry
--------------------------
ATOM BASIS FOR ELEMENT Po
--------------------------
 NewGTO Po
 S 22
    1       2284.760000000000        -0.000226254552
    2        345.774000000000        -0.001141818552
    3         40.920400000000        -0.025785350306
    4         25.577100000000         0.162892737943
    5         15.994200000000        -0.436641582231
    6          6.793830000000         0.934553091162
    7          1.927090000000        -0.879381491774
    8          0.997032000000        -0.481905916187
    9          0.073536000000        -0.001305757215
   10       2284.760000000000        -0.000022897477
   11        345.774000000000        -0.000136380548
   12         40.920400000000        -0.001503198912
   13         25.577100000000         0.011615646228
   14         15.994200000000        -0.037012959139
   15          6.793830000000         0.094726638423
   16          1.927090000000        -0.133697933943
   17          0.997032000000        -0.084198822943
   18          0.073536000000         0.029298720676
   19          0.340350000000         0.268547730297
   20          0.161724000000        -0.267751369712
   21          0.087500000000         0.118973049852
   22          0.033900000000        -0.031358827209
 P 43
    1         19.771400000000         0.002268991093
    2         12.392100000000        -0.027130344117
    3          7.774070000000         0.066415785112
    4          2.291310000000        -0.086495831693
    5          1.205940000000        -0.080182553064
    6          0.594611000000        -0.020016631946
    7          0.298645000000        -0.000822667809
    8          0.129742000000        -0.000314724455
    9          0.053935000000         0.000020668474
   10         19.771400000000        -0.004309677331
   11         12.392100000000         0.051530845322
   12          7.774070000000        -0.126148844068
   13          2.291310000000         0.164288492057
   14          1.205940000000         0.152297174028
   15          0.594611000000         0.038019199470
   16          0.298645000000         0.001562559156
   17          0.129742000000         0.000597781479
   18          0.053935000000        -0.000039257295
   19         19.771400000000         0.016135027831
   20         12.392100000000        -0.192926653085
   21          7.774070000000         0.472289443818
   22          2.291310000000        -0.615080709716
   23          1.205940000000        -0.570186339385
   24          0.594611000000        -0.142340317936
   25          0.298645000000        -0.005850074967
   26          0.129742000000        -0.002238037806
   27          0.053935000000         0.000146975632
   28         19.771400000000        -0.000017873186
   29         12.392100000000         0.000431749947
   30          7.774070000000        -0.001216641785
   31          2.291310000000         0.002097581832
   32          1.205940000000         0.001971866681
   33          0.594611000000        -0.000060284856
   34          0.298645000000        -0.003605450413
   35          0.129742000000        -0.004516897994
   36          0.053935000000        -0.001675188774
   37         19.771400000000         0.000033947980
   38         12.392100000000        -0.000820057410
   39          7.774070000000         0.002310865625
   40          2.291310000000        -0.003984105931
   41          1.205940000000        -0.003745325031
   42          0.594611000000         0.000114503876
   43          0.298645000000         0.006848122042
 S 22
    1       2284.760000000000         0.000073155840
    2        345.774000000000         0.000369189014
    3         40.920400000000         0.008337286185
    4         25.577100000000        -0.052668796726
    5         15.994200000000         0.141181166373
    6          6.793830000000        -0.302172996840
    7          1.927090000000         0.284334130664
    8          0.997032000000         0.155816674586
    9          0.073536000000         0.000422195994
   10       2284.760000000000        -0.000227055757
   11        345.774000000000        -0.001352375588
   12         40.920400000000        -0.014906007852
   13         25.577100000000         0.115182969145
   14         15.994200000000        -0.367027580444
   15          6.793830000000         0.939327460239
   16          1.927090000000        -1.325774278700
   17          0.997032000000        -0.834931628805
   18          0.073536000000         0.290531716721
   19          0.340350000000         2.543191716117
   20          0.161724000000        -1.459928534040
   21          0.087500000000         0.489688318765
   22          0.033900000000        -0.182871623878
 P 43
    1         19.771400000000         0.000197032793
    2         12.392100000000        -0.002355922633
    3          7.774070000000         0.005767359627
    4          2.291310000000        -0.007511054288
    5          1.205940000000        -0.006962826962
    6          0.594611000000        -0.001738187913
    7          0.298645000000        -0.000071438154
    8          0.129742000000        -0.000027329785
    9         19.771400000000        -0.000435426738
   10         12.392100000000         0.005206400892
   11          7.774070000000        -0.012745404236
   12          2.291310000000         0.016598830200
   13          1.205940000000         0.015387291587
   14          0.594611000000         0.003841256490
   15          0.298645000000         0.000157872617
   16          0.129742000000         0.000060396642
   17          0.053935000000        -0.000003966347
   18         19.771400000000         0.006744482172
   19         12.392100000000        -0.080643825713
   20          7.774070000000         0.197418174131
   21          2.291310000000        -0.257105282036
   22          1.205940000000        -0.238339322442
   23          0.594611000000        -0.059498610524
   24          0.298645000000        -0.002445346034
   25          0.129742000000        -0.000935505426
   26          0.053935000000         0.000061436183
   27         19.771400000000         0.000054683146
   28         12.392100000000        -0.001320942196
   29          7.774070000000         0.003722324653
   30          2.291310000000        -0.006417567325
   31          1.205940000000        -0.006032940879
   32          0.594611000000         0.000184441967
   33          0.298645000000         0.011030902546
   34          0.129742000000         0.013819483247
   35          0.053935000000         0.005125252602
   36         19.771400000000        -0.000120845387
   37         12.392100000000         0.002919176774
   38          7.774070000000        -0.008226040246
   39          2.291310000000         0.014182311329
   40          1.205940000000         0.013332317597
   41          0.594611000000        -0.000407602020
   42          0.298645000000        -0.024377413780
   43          0.129742000000        -0.030539954453
 S 22
    1       2284.760000000000         0.000120449235
    2        345.774000000000         0.000607860351
    3         40.920400000000         0.013727130334
    4         25.577100000000        -0.086717838529
    5         15.994200000000         0.232451211153
    6          6.793830000000        -0.497520178490
    7          1.927090000000         0.468148937589
    8          0.997032000000         0.256548204382
    9          0.073536000000         0.000695135000
   10       2284.760000000000        -0.000187873255
   11        345.774000000000        -0.001118999171
   12         40.920400000000        -0.012333711561
   13         25.577100000000         0.095306102900
   14         15.994200000000        -0.303690455357
   15          6.793830000000         0.777229830478
   16          1.927090000000        -1.096988389569
   17          0.997032000000        -0.690849353166
   18          0.073536000000         0.240395311001
   19          0.340350000000         5.330800758532
   20          0.161724000000       -11.712956150231
   21          0.087500000000         9.417855965040
   22          0.033900000000        -2.600640231358
 P 43
    1         19.771400000000        -0.003252961886
    2         12.392100000000         0.038895690535
    3          7.774070000000        -0.095217657881
    4          2.291310000000         0.124005618490
    5          1.205940000000         0.114954523127
    6          0.594611000000         0.028697045579
    7          0.298645000000         0.001179425973
    8          0.129742000000         0.000451207879
    9          0.053935000000        -0.000029631565
   10         19.771400000000         0.005908271420
   11         12.392100000000        -0.070645247252
   12          7.774070000000         0.172941395082
   13          2.291310000000        -0.225228231159
   14          1.205940000000        -0.208788958297
   15          0.594611000000        -0.052121709436
   16          0.298645000000        -0.002142161209
   17          0.129742000000        -0.000819517322
   18          0.053935000000         0.000053819053
   19         19.771400000000         0.000476472387
   20         12.392100000000        -0.005697184030
   21          7.774070000000         0.013946854070
   22          2.291310000000        -0.018163524533
   23          1.205940000000        -0.016837779823
   24          0.594611000000        -0.004203353830
   25          0.298645000000        -0.000172754532
   26          0.129742000000        -0.000066089952
   27          0.053935000000         0.000004340236
   28         19.771400000000        -0.000902805001
   29         12.392100000000         0.021808423661
   30          7.774070000000        -0.061454644463
   31          2.291310000000         0.105952423563
   32          1.205940000000         0.099602337613
   33          0.594611000000        -0.003045090524
   34          0.298645000000        -0.182117428548
   35          0.129742000000        -0.228156195047
   36          0.053935000000        -0.084616632297
   37         19.771400000000         0.001639741618
   38         12.392100000000        -0.039610081748
   39          7.774070000000         0.111618497915
   40          2.291310000000        -0.192438675252
   41          1.205940000000        -0.180905176661
   42          0.594611000000         0.005530719986
   43          0.298645000000         0.330775224498
 P 43
    1         19.771400000000        -0.001072746122
    2         12.392100000000         0.012826833706
    3          7.774070000000        -0.031400421146
    4          2.291310000000         0.040893976303
    5          1.205940000000         0.037909149617
    6          0.594611000000         0.009463573636
    7          0.298645000000         0.000388945423
    8          0.129742000000         0.000148797164
    9          0.053935000000        -0.000009771755
   10         19.771400000000         0.001950423946
   11         12.392100000000        -0.023321234275
   12          7.774070000000         0.057090985556
   13          2.291310000000        -0.074351786545
   14          1.205940000000        -0.068924894453
   15          0.594611000000        -0.017206289791
   16          0.298645000000        -0.000707164960
   17          0.129742000000        -0.000270537031
   18          0.053935000000         0.000017766613
   19         19.771400000000        -0.000019504878
   20         12.392100000000         0.000233219978
   21          7.774070000000        -0.000570928546
   22          2.291310000000         0.000743542207
   23          1.205940000000         0.000689271510
   24          0.594611000000         0.000172068531
   25          0.298645000000         0.000007071881
   26          0.129742000000         0.000002705459
   27         19.771400000000        -0.000464049666
   28         12.392100000000         0.011209720491
   29          7.774070000000        -0.031588224714
   30          2.291310000000         0.054460472333
   31          1.205940000000         0.051196472619
   32          0.594611000000        -0.001565203161
   33          0.298645000000        -0.093609951007
   34          0.129742000000        -0.117274279626
   35          0.053935000000        -0.043493689027
   36         19.771400000000         0.000843716480
   37         12.392100000000        -0.020381063924
   38          7.774070000000         0.057432442467
   39          2.291310000000        -0.099017845172
   40          1.205940000000        -0.093083371884
   41          0.594611000000         0.002845789572
   42          0.298645000000         0.170197856139
   43          0.129742000000         0.213223388730
 P 43
    1         19.771400000000        -0.000015252786
    2         12.392100000000         0.000182377685
    3          7.774070000000        -0.000446465296
    4          2.291310000000         0.000581448929
    5          1.205940000000         0.000539009322
    6          0.594611000000         0.000134557342
    7          0.298645000000         0.000005530201
    8          0.129742000000         0.000002115665
    9         19.771400000000         0.000022977617
   10         12.392100000000        -0.000274743543
   11          7.774070000000         0.000672579310
   12          2.291310000000        -0.000875925907
   13          1.205940000000        -0.000811992603
   14          0.594611000000        -0.000202704410
   15          0.298645000000        -0.000008330992
   16          0.129742000000        -0.000003187151
   17         19.771400000000         0.000414918988
   18         12.392100000000        -0.004961189564
   19          7.774070000000         0.012145120553
   20          2.291310000000        -0.015817057670
   21          1.205940000000        -0.014662580162
   22          0.594611000000        -0.003660340801
   23          0.298645000000        -0.000150437124
   24          0.129742000000        -0.000057552078
   25          0.053935000000         0.000003779540
   26         19.771400000000         0.000035976157
   27         12.392100000000        -0.000869050645
   28          7.774070000000         0.002448925207
   29          2.291310000000        -0.004222131022
   30          1.205940000000        -0.003969084476
   31          0.594611000000         0.000121344758
   32          0.298645000000         0.007257253953
   33          0.129742000000         0.009091867053
   34          0.053935000000         0.003371914452
   35         19.771400000000        -0.000054196416
   36         12.392100000000         0.001309184585
   37          7.774070000000        -0.003689192510
   38          2.291310000000         0.006360445021
   39          1.205940000000         0.005979242108
   40          0.594611000000        -0.000182800263
   41          0.298645000000        -0.010932717278
   42          0.129742000000        -0.013696477023
   43          0.053935000000        -0.005079633099
 P 43
    1         19.771400000000        -0.027898109928
    2         12.392100000000         0.333577917074
    3          7.774070000000        -0.816607381126
    4          2.291310000000         1.063499203965
    5          1.205940000000         0.985875037973
    6          0.594611000000         0.246112115737
    7          0.298645000000         0.010115014131
    8          0.129742000000         0.003869657083
    9          0.053935000000        -0.000254126759
   10         19.771400000000         0.050696519935
   11         12.392100000000        -0.606178682581
   12          7.774070000000         1.483941115822
   13          2.291310000000        -1.932593596242
   14          1.205940000000        -1.791534754308
   15          0.594611000000        -0.447235594590
   16          0.298645000000        -0.018381030717
   17          0.129742000000        -0.007031951196
   18          0.053935000000         0.000461799826
   19         19.771400000000         0.001824780261
   20         12.392100000000        -0.021818911758
   21          7.774070000000         0.053413261123
   22          2.291310000000        -0.069562144549
   23          1.205940000000        -0.064484845539
   24          0.594611000000        -0.016097883766
   25          0.298645000000        -0.000661610345
   26          0.129742000000        -0.000253109400
   27          0.053935000000         0.000016622112
   28         19.771400000000         0.006113238034
   29         12.392100000000        -0.147673179511
   30          7.774070000000         0.416132907376
   31          2.291310000000        -0.717444392464
   32          1.205940000000        -0.674445531245
   33          0.594611000000         0.020619472852
   34          0.298645000000         1.233186778440
   35          0.129742000000         1.544932878717
   36          0.053935000000         0.572971587712
   37         19.771400000000        -0.011108992497
   38         12.392100000000         0.268352096546
   39          7.774070000000        -0.756197831632
   40          2.291310000000         1.303741867757
   41          1.205940000000         1.225604222212
   42          0.594611000000        -0.037469761184
   43          0.298645000000        -2.240950310164
 end
  // -----------------------------------------------
  // The basis set
  // -----------------------------------------------
  BAS[ATNO] = new BFNGauss[NSH];
  // Basis function   1 L = s
  InitBFNGauss(BAS[ATNO][  0]);
  BAS[ATNO][  0].l  = 0;
  BAS[ATNO][  0].ng = 22;
  BAS[ATNO][  0].a[  0] =      2284.760000000000;     BAS[ATNO][  0].d[  0] =        -0.000226254552;
  BAS[ATNO][  0].a[  1] =       345.774000000000;     BAS[ATNO][  0].d[  1] =        -0.001141818552;
  BAS[ATNO][  0].a[  2] =        40.920400000000;     BAS[ATNO][  0].d[  2] =        -0.025785350306;
  BAS[ATNO][  0].a[  3] =        25.577100000000;     BAS[ATNO][  0].d[  3] =         0.162892737943;
  BAS[ATNO][  0].a[  4] =        15.994200000000;     BAS[ATNO][  0].d[  4] =        -0.436641582231;
  BAS[ATNO][  0].a[  5] =         6.793830000000;     BAS[ATNO][  0].d[  5] =         0.934553091162;
  BAS[ATNO][  0].a[  6] =         1.927090000000;     BAS[ATNO][  0].d[  6] =        -0.879381491774;
  BAS[ATNO][  0].a[  7] =         0.997032000000;     BAS[ATNO][  0].d[  7] =        -0.481905916187;
  BAS[ATNO][  0].a[  8] =         0.073536000000;     BAS[ATNO][  0].d[  8] =        -0.001305757215;
  BAS[ATNO][  0].a[  9] =      2284.760000000000;     BAS[ATNO][  0].d[  9] =        -0.000022897477;
  BAS[ATNO][  0].a[ 10] =       345.774000000000;     BAS[ATNO][  0].d[ 10] =        -0.000136380548;
  BAS[ATNO][  0].a[ 11] =        40.920400000000;     BAS[ATNO][  0].d[ 11] =        -0.001503198912;
  BAS[ATNO][  0].a[ 12] =        25.577100000000;     BAS[ATNO][  0].d[ 12] =         0.011615646228;
  BAS[ATNO][  0].a[ 13] =        15.994200000000;     BAS[ATNO][  0].d[ 13] =        -0.037012959139;
  BAS[ATNO][  0].a[ 14] =         6.793830000000;     BAS[ATNO][  0].d[ 14] =         0.094726638423;
  BAS[ATNO][  0].a[ 15] =         1.927090000000;     BAS[ATNO][  0].d[ 15] =        -0.133697933943;
  BAS[ATNO][  0].a[ 16] =         0.997032000000;     BAS[ATNO][  0].d[ 16] =        -0.084198822943;
  BAS[ATNO][  0].a[ 17] =         0.073536000000;     BAS[ATNO][  0].d[ 17] =         0.029298720676;
  BAS[ATNO][  0].a[ 18] =         0.340350000000;     BAS[ATNO][  0].d[ 18] =         0.268547730297;
  BAS[ATNO][  0].a[ 19] =         0.161724000000;     BAS[ATNO][  0].d[ 19] =        -0.267751369712;
  BAS[ATNO][  0].a[ 20] =         0.087500000000;     BAS[ATNO][  0].d[ 20] =         0.118973049852;
  BAS[ATNO][  0].a[ 21] =         0.033900000000;     BAS[ATNO][  0].d[ 21] =        -0.031358827209;

FINAL SINGLE POINT ENERGY      -210.409948389294

DIPOLE MOMENT
-------------
                                X             Y             Z
Electronic contribution:     -0.00000       0.00000       0.00000
Nuclear contribution   :      0.00000       0.00000       0.00000
                        -----------------------------------------
Total Dipole Moment    :     -0.00000       0.00000       0.00000
                        -----------------------------------------
Magnitude (a.u.)       :      0.00000
Magnitude (Debye)      :      0.00000

Rotational constants in cm-1:     0.000000     0.000000     0.000000
Rotational constants in MHz :     0.000000     0.000000     0.000000

                             ****ORCA TERMINATED NORMALLY****
TOTAL RUN TIME: 0 days 0 hours 0 minutes 1 seconds 115 msec
