                         Program Version 4.2.0 -  RELEASE  -
|  1> #
|  2> # 85_At CCSD(T)/aug-cc-pVTZ-PP
|  3> #
|  4> ! CCSD(T) aug-cc-pVTZ-PP tightscf slowconv
|  5>
|  6> *xyz 0 2
|  7>  At 0.0 0.0 0.0
|  8> *
|  9>
| 10> %maxcore 5000
| 11>
| 12> %pal
| 13> nprocs 24
| 14> end
| 15>
| 16>
| 17>                          ****END OF INPUT****

CARTESIAN COORDINATES (ANGSTROEM)
---------------------------------
  At     0.000000    0.000000    0.000000

 Total Charge           Charge          ....    0
 Multiplicity           Mult            ....    2
 Number of Electrons    NEL             ....   25
 Basis Dimension        Dim             ....   55

ORBITAL ENERGIES
----------------
                 SPIN UP ORBITALS
  NO   OCC          E(Eh)            E(eV)
   0   1.0000      -7.815441      -212.6690
   1   1.0000      -5.119379      -139.3054
   2   1.0000      -5.097184      -138.7014
   3   1.0000      -5.097184      -138.7014
   4   1.0000      -1.840000       -50.0690
   5   1.0000      -1.833111       -49.8815
   6   1.0000      -1.833111       -49.8815
   7   1.0000      -1.813358       -49.3440
   8   1.0000      -1.813358       -49.3440
   9   1.0000      -0.978746       -26.6330
  10   1.0000      -0.432565       -11.7707
  11   1.0000      -0.377264       -10.2659
  12   1.0000      -0.377264       -10.2659
  13   0.0000       0.062095         1.6897
  14   0.0000       0.098184         2.6717
  15   0.0000       0.107568         2.9271
  16   0.0000       0.107568         2.9271
  17   0.0000       0.164530         4.4771

                 SPIN DOWN ORBITALS
  NO   OCC          E(Eh)            E(eV)
   0   1.0000      -7.808195      -212.4718
   1   1.0000      -5.102721      -138.8521
   2   1.0000      -5.096740      -138.6893
   3   1.0000      -5.096740      -138.6893
   4   1.0000      -1.826845       -49.7110
   5   1.0000      -1.823129       -49.6099
   6   1.0000      -1.823129       -49.6099
   7   1.0000      -1.812845       -49.3300
   8   1.0000      -1.812845       -49.3300
   9   1.0000      -0.897835       -24.4313
  10   1.0000      -0.358975        -9.7682
  11   1.0000      -0.358975        -9.7682
  12   0.0000      -0.048618        -1.3230
  13   0.0000       0.066498         1.8095
  14   0.0000       0.108652         2.9566
  15   0.0000       0.108652         2.9566
  16   0.0000       0.116192         3.1617

E(0)                                       ...   -261.360482243
E(0)                                       ...   -261.360482243
E(CORR)                                    ...     -0.203949327
E(TOT)                                     ...   -261.564431570
E(CCSD(T))                                 ...   -261.570222092

MULLIKEN ATOMIC CHARGES AND SPIN DENSITIES
------------------------------------------
   0 At:    0.000000    1.000000
Sum of atomic charges       :    0.0000000

LOEWDIN ATOMIC CHARGES AND SPIN DENSITIES
-----------------------------------------
   0 At:    0.000000    1.000000

FINAL SINGLE POINT ENERGY      -261.570222092168

DIPOLE MOMENT
-------------
                                X             Y             Z
Electronic contribution:     -0.00000      -0.00000       0.00000
Nuclear contribution   :      0.00000       0.00000       0.00000
                        -----------------------------------------
Total Dipole Moment    :     -0.00000      -0.00000       0.00000
                        -----------------------------------------
Magnitude (a.u.)       :      0.00000
Magnitude (Debye)      :      0.00000

Rotational constants in cm-1:     0.000000     0.000000     0.000000
Rotational constants in MHz :     0.000000     0.000000     0.000000

                             ****ORCA TERMINATED NORMALLY****
TOTAL RUN TIME: 0 days 0 hours 0 minutes 18 seconds 627 msec
