                         Program Version 4.2.0 -  RELEASE  -
|  1> # input to generate an atomic fitting density for At
|  2> # this file is use internally by ORCA
|  3> #
|  4> # atomic ground state (S=2): 1s2 2s2 2p6 3s2 3p6 4s2 3d10 4p6 5s2 4d10 5p6 6s2 4f14 5d10 6p5
|  5> #
|  6> ! RHF AllowRHF def2-SVP def2/J  NoMulliken NoLoewdin NoMayer NoPrintMOs
|  7>
|  8> %output print[p_atomdensfit] 2 end
|  9>
| 10> %scf
| 11>   guess hcore
| 12>   maxiter 1000
| 13>   maxdisk 500000
| 14>   SCFMode Conventional
| 15>   lshift 1.000000
| 16>   hftyp rohf
| 17>   rohf_case sahf
| 18>   rohf_numop   2
| 19>   rohf_norb[1] 3
| 20>   rohf_nel[1]  5
| 21> end
| 22>
| 23> %basis
| 24>   NewECP 85
| 25>     N_core 60
| 26>     lmax h
| 27>     s 3
| 28>       1      30.2008320000     49.9571580000  2
| 29>       2      13.6123060000    283.2103710000  2
| 30>       3       8.5293400000     62.2810520000  2
| 31>     p 4
| 32>       1      10.8540650000     71.9823710000  2
| 33>       2       9.4682290000    143.9035320000  2
| 34>       3       7.0311140000      4.8717590000  2
| 35>       4       6.1438580000      8.9830590000  2
| 36>     d 4
| 37>       1       8.3135150000     36.3632370000  2
| 38>       2       7.9989650000     54.5489700000  2
| 39>       3       5.1799660000      9.7762850000  2
| 40>       4       4.9422260000     14.2647550000  2
| 41>     f 4
| 42>       1       5.8121630000     19.8701980000  2
| 43>       2       5.7537150000     26.4164520000  2
| 44>       3       2.5134720000      0.9949700000  2
| 45>       4       2.5362610000      1.4907010000  2
| 46>     g 4
| 47>       1       9.8957780000    -22.2232030000  2
| 48>       2       9.7373340000    -26.7154760000  2
| 49>       3       3.0133310000     -0.3730440000  2
| 50>       4       3.0977630000     -0.4859460000  2
| 51>     h 1
| 52>       1       1.0000000000      0.0000000000  2
| 53>   end
| 54>   NewGTO 85
| 55>     s 9
| 56>      1    2405.3100000000      0.0001732522
| 57>      2     365.5650000000      0.0008346678
| 58>      3      41.9062000000      0.0229171861
| 59>      4      26.2026000000     -0.1606720278
| 60>      5      16.3915000000      0.4615631548
| 61>      6       7.0834100000     -1.0107154748
| 62>      7       2.0331300000      0.9401519027
| 63>      8       1.0700700000      0.5149074992
| 64>      9       0.0818330000      0.0013737878
| 65>     s 9
| 66>      1    2405.3100000000     -0.0000972957
| 67>      2     365.5650000000     -0.0005849608
| 68>      3      41.9062000000     -0.0064096519
| 69>      4      26.2026000000      0.0630879659
| 70>      5      16.3915000000     -0.2239510070
| 71>      6       7.0834100000      0.5929426358
| 72>      7       2.0331300000     -0.8391126620
| 73>      8       1.0700700000     -0.5146611133
| 74>      9       0.0818330000      0.1619736360
| 75>     s 1
| 76>      1       0.3760710000      1.0000000000
| 77>     s 1
| 78>      1       0.1794470000      1.0000000000
| 79>     s 1
| 80>      1       0.0966000000      1.0000000000
| 81>     s 1
| 82>      1       0.0384000000      1.0000000000
| 83>     p 9
| 84>      1      20.2970000000     -0.0118100018
| 85>      2      12.7312000000      0.1669480251
| 86>      3       8.0003400000     -0.4251720640
| 87>      4       2.4479600000      0.5371220809
| 88>      5       1.3108200000      0.5267320793
| 89>      6       0.6458650000      0.1326450200
| 90>      7       0.3337580000      0.0045660007
| 91>      8       0.1461660000      0.0028370004
| 92>      9       0.0608710000     -0.0000470000
| 93>     p 9
| 94>      1      20.2970000000      0.0010179999
| 95>      2      12.7312000000     -0.0512499952
| 96>      3       8.0003400000      0.1534749856
| 97>      4       2.4479600000     -0.2616099754
| 98>      5       1.3108200000     -0.2555449760
| 99>      6       0.6458650000      0.0133139987
|100>      7       0.3337580000      0.4434769583
|101>      8       0.1461660000      0.5252819506
|102>      9       0.0608710000      0.1879619823
|103>     p 1
|104>      1       0.5686000000      1.0000000000
|105>     p 1
|106>      1       0.0929000000      1.0000000000
|107>     p 1
|108>      1       0.0368000000      1.0000000000
|109>   end
|110>   NewAuxGTO 85
|111>     S 1
|112>      1 1310.72 1.0
|113>     S 1
|114>      1  655.36 1.0
|115>     S 1
|116>      1  327.68 1.0
|117>     S 1
|118>      1  163.84 1.0
|119>     S 1
|120>      1   81.82 1.0
|121>     S 1
|122>      1   40.96 1.0
|123>     S 1
|124>      1   20.48 1.0
|125>     S 1
|126>      1   10.24 1.0
|127>     S 1
|128>      1    5.12 1.0
|129>     S 1
|130>      1    2.56 1.0
|131>     S 1
|132>      1    1.28 1.0
|133>     S 1
|134>      1    0.64 1.0
|135>     S 1
|136>      1    0.32 1.0
|137>     S 1
|138>      1    0.16 1.0
|139>     S 1
|140>      1    0.08 1.0
|141>     S 1
|142>      1    0.04 1.0
|143>     S 1
|144>      1    0.02 1.0
|145>     S 1
|146>      1    0.01 1.0
|147>   end
|148> end
|149>
|150> * xyz 0 2
|151> 85  0.0 0.0 0.0
|152> *
|153>
|154>
|155>                          ****END OF INPUT****

CARTESIAN COORDINATES (ANGSTROEM)
---------------------------------
  At     0.000000    0.000000    0.000000

 Total Charge           Charge          ....    0
 Multiplicity           Mult            ....    2
 Number of Electrons    NEL             ....   25
 Basis Dimension        Dim             ....   21

ORBITAL ENERGIES
----------------

  NO   OCC          E(Eh)            E(eV)
   0   2.0000     -12.284843      -334.2876
   1   2.0000      -9.188521      -250.0324
   2   2.0000      -9.188521      -250.0324
   3   2.0000      -9.186319      -249.9724
   4   2.0000      -3.460937       -94.1769
   5   2.0000      -2.269619       -61.7595
   6   2.0000      -2.269619       -61.7595
   7   2.0000      -2.264305       -61.6149
   8   2.0000      -0.757235       -20.6054
   9   2.0000      -0.366348        -9.9688
  10   1.6667      -0.372267       -10.1299
  11   1.6667      -0.372267       -10.1299
  12   1.6667      -0.092651        -2.5212
  13   0.0000       0.064046         1.7428
  14   0.0000       0.064046         1.7428
  15   0.0000       0.068327         1.8593
  16   0.0000       0.376883        10.2555
  17   0.0000       2.978843        81.0584

CleanUpVectors: The p-vectors have cracked symmetry
CleanUpVectors: The p-vectors have cracked symmetry
CleanUpVectors: The p-vectors have cracked symmetry
CleanUpVectors: The p-vectors have cracked symmetry
CleanUpVectors: The p-vectors have cracked symmetry
CleanUpVectors: The p-vectors have cracked symmetry
CleanUpVectors: The p-vectors have cracked symmetry
CleanUpVectors: The p-vectors have cracked symmetry
CleanUpVectors: The p-vectors have cracked symmetry
CleanUpVectors: The p-vectors have cracked symmetry
CleanUpVectors: The p-vectors have cracked symmetry
CleanUpVectors: The p-vectors have cracked symmetry
CleanUpVectors: The p-vectors have cracked symmetry
CleanUpVectors: The p-vectors have cracked symmetry
--------------------------
ATOM BASIS FOR ELEMENT At
--------------------------
 NewGTO At
 S 22
    1       2405.310000000000        -0.000162834540
    2        365.565000000000        -0.000784479199
    3         41.906200000000        -0.021539174969
    4         26.202600000000         0.151010813642
    5         16.391500000000        -0.433809347574
    6          7.083410000000         0.949941121050
    7          2.033130000000        -0.883620538792
    8          1.070070000000        -0.483946094843
    9          0.081833000000        -0.001291181896
   10       2405.310000000000        -0.000016210057
   11        365.565000000000        -0.000097458034
   12         41.906200000000        -0.001067887065
   13         26.202600000000         0.010510839555
   14         16.391500000000        -0.037311602447
   15          7.083410000000         0.098787856314
   16          2.033130000000        -0.139801282755
   17          1.070070000000        -0.085745677645
   18          0.081833000000         0.026985794770
   19          0.376071000000         0.271335611914
   20          0.179447000000        -0.267246402254
   21          0.096600000000         0.120933088387
   22          0.038400000000        -0.031881180250
 P 43
    1         20.297000000000        -0.000451332401
    2         12.731200000000         0.006380105119
    3          8.000340000000        -0.016248424983
    4          2.447960000000         0.020526719832
    5          1.310820000000         0.020129654324
    6          0.645865000000         0.005069177492
    7          0.333758000000         0.000174494813
    8          0.146166000000         0.000108419137
    9         20.297000000000        -0.000201526699
   10         12.731200000000         0.002848812806
   11          8.000340000000        -0.007255165911
   12          2.447960000000         0.009165488849
   13          1.310820000000         0.008988193133
   14          0.645865000000         0.002263463922
   15          0.333758000000         0.000077914556
   16          0.146166000000         0.000048410774
   17         20.297000000000         0.013688714140
   18         12.731200000000        -0.193505795384
   19          8.000340000000         0.492807617042
   20          2.447960000000        -0.622566427010
   21          1.310820000000        -0.610523603967
   22          0.645865000000        -0.153745934302
   23          0.333758000000        -0.005292351297
   24          0.146166000000        -0.003288304959
   25          0.060871000000         0.000054476669
   26         20.297000000000         0.000001202735
   27         12.731200000000        -0.000060550281
   28          8.000340000000         0.000181325938
   29          2.447960000000        -0.000309084077
   30          1.310820000000        -0.000301918468
   31          0.645865000000         0.000015730077
   32          0.333758000000         0.000523954280
   33          0.146166000000         0.000620604343
   34          0.060871000000         0.000222071256
   35         20.297000000000         0.000000537039
   36         12.731200000000        -0.000027036610
   37          8.000340000000         0.000080964756
   38          2.447960000000        -0.000138010685
   39          1.310820000000        -0.000134811133
   40          0.645865000000         0.000007023716
   41          0.333758000000         0.000233953459
   42          0.146166000000         0.000277109164
   43          0.060871000000         0.000099158153
 S 22
    1       2405.310000000000         0.000054139737
    2        365.565000000000         0.000260826096
    3         41.906200000000         0.007161412207
    4         26.202600000000        -0.050208547252
    5         16.391500000000         0.144234287603
    6          7.083410000000        -0.315839392641
    7          2.033130000000         0.293788918190
    8          1.070070000000         0.160903910021
    9          0.081833000000         0.000429296192
   10       2405.310000000000        -0.000161690130
   11        365.565000000000        -0.000972112723
   12         41.906200000000        -0.010651831993
   13         26.202600000000         0.104842263515
   14         16.391500000000        -0.372171303282
   15          7.083410000000         0.985377277349
   16          2.033130000000        -1.394473091237
   17          1.070070000000        -0.855285715618
   18          0.081833000000         0.269174673581
   19          0.376071000000         2.588594285421
   20          0.179447000000        -1.463798014189
   21          0.096600000000         0.511177546242
   22          0.038400000000        -0.184266035206
 P 43
    1         20.297000000000        -0.000192196259
    2         12.731200000000         0.002716916256
    3          8.000340000000        -0.006919260600
    4          2.447960000000         0.008741137921
    5          1.310820000000         0.008572050780
    6          0.645865000000         0.002158668309
    7          0.333758000000         0.000074307207
    8          0.146166000000         0.000046169414
    9         20.297000000000        -0.000134026687
   10         12.731200000000         0.001894622124
   11          8.000340000000        -0.004825096905
   12          2.447960000000         0.006095570028
   13          1.310820000000         0.005977658319
   14          0.645865000000         0.001505331911
   15          0.333758000000         0.000051817600
   16          0.146166000000         0.000032195911
   17         20.297000000000         0.004862333949
   18         12.731200000000        -0.068734710114
   19          8.000340000000         0.175048962396
   20          2.447960000000        -0.221140265089
   21          1.310820000000        -0.216862564004
   22          0.645865000000        -0.054611709197
   23          0.333758000000        -0.001879882882
   24          0.146166000000        -0.001168030589
   25          0.060871000000         0.000019350522
   26         20.297000000000        -0.000041662842
   27         12.731200000000         0.002097466264
   28          8.000340000000        -0.006281144095
   29          2.447960000000         0.010706695594
   30          1.310820000000         0.010458478369
   31          0.645865000000        -0.000544891039
   32          0.333758000000        -0.018149815535
   33          0.146166000000        -0.021497780953
   34          0.060871000000        -0.007692564952
   35         20.297000000000        -0.000029053285
   36         12.731200000000         0.001462653102
   37          8.000340000000        -0.004380110923
   38          2.447960000000         0.007466237617
   39          1.310820000000         0.007293145110
   40          0.645865000000        -0.000379975870
   41          0.333758000000        -0.012656644088
   42          0.146166000000        -0.014991323834
   43          0.060871000000        -0.005364355166
 S 22
    1       2405.310000000000         0.000092036727
    2        365.565000000000         0.000443400387
    3         41.906200000000         0.012174291609
    4         26.202600000000        -0.085353765129
    5         16.391500000000         0.245196090735
    6          7.083410000000        -0.536922153964
    7          2.033130000000         0.499436683456
    8          1.070070000000         0.273534194792
    9          0.081833000000         0.000729796983
   10       2405.310000000000        -0.000136138897
   11        365.565000000000        -0.000818493706
   12         41.906200000000        -0.008968566332
   13         26.202600000000         0.088274467276
   14         16.391500000000        -0.313358586804
   15          7.083410000000         0.829662116278
   16          2.033130000000        -1.174110183545
   17          1.070070000000        -0.720128394631
   18          0.081833000000         0.226638095343
   19          0.376071000000         5.476626301167
   20          0.179447000000       -11.889762895911
   21          0.096600000000         9.641648141385
   22          0.038400000000        -2.737682775593
 P 43
    1         20.297000000000         0.002207335605
    2         12.731200000000        -0.031203239952
    3          8.000340000000         0.079466324481
    4          2.447960000000        -0.100390221232
    5          1.310820000000        -0.098448289228
    6          0.645865000000        -0.024791873909
    7          0.333758000000        -0.000853403419
    8          0.146166000000        -0.000530246489
    9          0.060871000000         0.000008784484
   10         20.297000000000         0.004333836019
   11         12.731200000000        -0.061263781044
   12          8.000340000000         0.156022499933
   13          2.447960000000        -0.197104036052
   14          1.310820000000        -0.193291287847
   15          0.645865000000        -0.048675840622
   16          0.333758000000        -0.001675554215
   17          0.146166000000        -0.001041074737
   18          0.060871000000         0.000017247270
   19         20.297000000000         0.000206709646
   20         12.731200000000        -0.002922079755
   21          8.000340000000         0.007441757275
   22          2.447960000000        -0.009401210690
   23          1.310820000000        -0.009219355210
   24          0.645865000000        -0.002321676625
   25          0.333758000000        -0.000079918395
   26          0.146166000000        -0.000049655822
   27         20.297000000000         0.000478489409
   28         12.731200000000        -0.024088980658
   29          8.000340000000         0.072137684018
   30          2.447960000000        -0.122964258100
   31          1.310820000000        -0.120113532892
   32          0.645865000000         0.006257964628
   33          0.333758000000         0.208447002369
   34          0.146166000000         0.246897715770
   35          0.060871000000         0.088347570345
   36         20.297000000000         0.000939455980
   37         12.731200000000        -0.047295794888
   38          8.000340000000         0.141633602325
   39          2.447960000000        -0.241425422359
   40          1.310820000000        -0.235828368808
   41          0.645865000000         0.012286755329
   42          0.333758000000         0.409260433592
   43          0.146166000000         0.484753750645
 P 43
    1         20.297000000000         0.000637144278
    2         12.731200000000        -0.009006770757
    3          8.000340000000         0.022937841346
    4          2.447960000000        -0.028977494333
    5          1.310820000000        -0.028416958427
    6          0.645865000000        -0.007156139083
    7          0.333758000000        -0.000246333681
    8          0.146166000000        -0.000153054894
    9          0.060871000000         0.000002535629
   10         20.297000000000         0.001248470703
   11         12.731200000000        -0.017648576335
   12          8.000340000000         0.044946213785
   13          2.447960000000        -0.056780785759
   14          1.310820000000        -0.055682427534
   15          0.645865000000        -0.014022302807
   16          0.333758000000        -0.000482685625
   17          0.146166000000        -0.000299907819
   18          0.060871000000         0.000004968511
   19         20.297000000000         0.000009827888
   20         12.731200000000        -0.000138928553
   21          8.000340000000         0.000353813946
   22          2.447960000000        -0.000446974999
   23          1.310820000000        -0.000438328788
   24          0.645865000000        -0.000110382741
   25          0.333758000000        -0.000003799673
   26          0.146166000000        -0.000002360857
   27         20.297000000000         0.000266327725
   28         12.731200000000        -0.013407952812
   29          8.000340000000         0.040151913317
   30          2.447960000000        -0.068442039685
   31          1.310820000000        -0.066855322936
   32          0.645865000000         0.003483189913
   33          0.333758000000         0.116021828040
   34          0.146166000000         0.137423536904
   35          0.060871000000         0.049174353662
   36         20.297000000000         0.000521863530
   37         12.731200000000        -0.026272599257
   38          8.000340000000         0.078676822835
   39          2.447960000000        -0.134110725640
   40          1.310820000000        -0.131001587813
   41          0.645865000000         0.006825236783
   42          0.333758000000         0.227342312125
   43          0.146166000000         0.269278506880
 P 43
    1         20.297000000000        -0.000017007984
    2         12.731200000000         0.000240427512
    3          8.000340000000        -0.000612304707
    4          2.447960000000         0.000773527723
    5          1.310820000000         0.000758564729
    6          0.645865000000         0.000191026591
    7          0.333758000000         0.000006575652
    8          0.146166000000         0.000004085660
    9         20.297000000000        -0.000004405280
   10         12.731200000000         0.000062273729
   11          8.000340000000        -0.000158594569
   12          2.447960000000         0.000200353344
   13          1.310820000000         0.000196477742
   14          0.645865000000         0.000049478274
   15          0.333758000000         0.000001703176
   16          0.146166000000         0.000001058237
   17         20.297000000000         0.000579806178
   18         12.731200000000        -0.008196230448
   19          8.000340000000         0.020873611501
   20          2.447960000000        -0.026369742028
   21          1.310820000000        -0.025859650055
   22          0.645865000000        -0.006512141435
   23          0.333758000000        -0.000224165539
   24          0.146166000000        -0.000139281127
   25         20.297000000000         0.000015556527
   26         12.731200000000        -0.000783174841
   27          8.000340000000         0.002345322120
   28          2.447960000000        -0.003997782829
   29          1.310820000000        -0.003905100773
   30          0.645865000000         0.000203457362
   31          0.333758000000         0.006776976169
   32          0.146166000000         0.008027076029
   33          0.060871000000         0.002872333840
   34         20.297000000000         0.000004029335
   35         12.731200000000        -0.000202852068
   36          8.000340000000         0.000607467729
   37          2.447960000000        -0.001035475697
   38          1.310820000000        -0.001011469887
   39          0.645865000000         0.000052697998
   40          0.333758000000         0.001755321493
   41          0.146166000000         0.002079112974
   42          0.060871000000         0.000743970349
   43         20.297000000000        -0.000530325648
 P 43
    1         20.297000000000        -0.001849259653
    2         12.731200000000         0.026141422519
    3          8.000340000000        -0.066575226400
    4          2.447960000000         0.084104829946
    5          1.310820000000         0.082477919884
    6          0.645865000000         0.020770113996
    7          0.333758000000         0.000714963555
    8          0.146166000000         0.000444229431
    9          0.060871000000        -0.000007359457
   10         20.297000000000        -0.000975626629
   11         12.731200000000         0.013791610003
   12          8.000340000000        -0.035123549904
   13          2.447960000000         0.044371763364
   14          1.310820000000         0.043513443238
   15          0.645865000000         0.010957831838
   16          0.333758000000         0.000377198238
   17          0.146166000000         0.000234365175
   18          0.060871000000        -0.000003882679
   19         20.297000000000         0.053080655325
   20         12.731200000000        -0.750356412103
   21          8.000340000000         1.910957522729
   22          2.447960000000        -2.414122582427
   23          1.310820000000        -2.367424190412
   24          0.645865000000        -0.596179806445
   25          0.333758000000        -0.020522122983
   26          0.146166000000        -0.012751042967
   27          0.060871000000         0.000211243897
   28         20.297000000000         0.000217533161
   29         12.731200000000        -0.010951448471
   30          8.000340000000         0.032795581537
   31          2.447960000000        -0.055902603578
   32          1.310820000000        -0.054606593146
   33          0.645865000000         0.002845026036
   34          0.333758000000         0.094765180716
   35          0.146166000000         0.112245829335
   36          0.060871000000         0.040164998174
   37         20.297000000000         0.000114765465
   38         12.731200000000        -0.005777730962
   39          8.000340000000         0.017302190425
   40          2.447960000000        -0.029492920906
   41          1.310820000000        -0.028809175772
   42          0.645865000000         0.001500969946
   43          0.333758000000         0.049995917911
 end
  // -----------------------------------------------
  // The basis set
  // -----------------------------------------------
  BAS[ATNO] = new BFNGauss[NSH];
  // Basis function   1 L = s
  InitBFNGauss(BAS[ATNO][  0]);
  BAS[ATNO][  0].l  = 0;
  BAS[ATNO][  0].ng = 22;
  BAS[ATNO][  0].a[  0] =      2405.310000000000;     BAS[ATNO][  0].d[  0] =        -0.000162834540;
  BAS[ATNO][  0].a[  1] =       365.565000000000;     BAS[ATNO][  0].d[  1] =        -0.000784479199;
  BAS[ATNO][  0].a[  2] =        41.906200000000;     BAS[ATNO][  0].d[  2] =        -0.021539174969;
  BAS[ATNO][  0].a[  3] =        26.202600000000;     BAS[ATNO][  0].d[  3] =         0.151010813642;
  BAS[ATNO][  0].a[  4] =        16.391500000000;     BAS[ATNO][  0].d[  4] =        -0.433809347574;
  BAS[ATNO][  0].a[  5] =         7.083410000000;     BAS[ATNO][  0].d[  5] =         0.949941121050;
  BAS[ATNO][  0].a[  6] =         2.033130000000;     BAS[ATNO][  0].d[  6] =        -0.883620538792;
  BAS[ATNO][  0].a[  7] =         1.070070000000;     BAS[ATNO][  0].d[  7] =        -0.483946094843;
  BAS[ATNO][  0].a[  8] =         0.081833000000;     BAS[ATNO][  0].d[  8] =        -0.001291181896;
  BAS[ATNO][  0].a[  9] =      2405.310000000000;     BAS[ATNO][  0].d[  9] =        -0.000016210057;
  BAS[ATNO][  0].a[ 10] =       365.565000000000;     BAS[ATNO][  0].d[ 10] =        -0.000097458034;
  BAS[ATNO][  0].a[ 11] =        41.906200000000;     BAS[ATNO][  0].d[ 11] =        -0.001067887065;
  BAS[ATNO][  0].a[ 12] =        26.202600000000;     BAS[ATNO][  0].d[ 12] =         0.010510839555;
  BAS[ATNO][  0].a[ 13] =        16.391500000000;     BAS[ATNO][  0].d[ 13] =        -0.037311602447;
  BAS[ATNO][  0].a[ 14] =         7.083410000000;     BAS[ATNO][  0].d[ 14] =         0.098787856314;
  BAS[ATNO][  0].a[ 15] =         2.033130000000;     BAS[ATNO][  0].d[ 15] =        -0.139801282755;
  BAS[ATNO][  0].a[ 16] =         1.070070000000;     BAS[ATNO][  0].d[ 16] =        -0.085745677645;
  BAS[ATNO][  0].a[ 17] =         0.081833000000;     BAS[ATNO][  0].d[ 17] =         0.026985794770;
  BAS[ATNO][  0].a[ 18] =         0.376071000000;     BAS[ATNO][  0].d[ 18] =         0.271335611914;
  BAS[ATNO][  0].a[ 19] =         0.179447000000;     BAS[ATNO][  0].d[ 19] =        -0.267246402254;
  BAS[ATNO][  0].a[ 20] =         0.096600000000;     BAS[ATNO][  0].d[ 20] =         0.120933088387;
  BAS[ATNO][  0].a[ 21] =         0.038400000000;     BAS[ATNO][  0].d[ 21] =        -0.031881180250;

FINAL SINGLE POINT ENERGY      -230.587392445691

DIPOLE MOMENT
-------------
                                X             Y             Z
Electronic contribution:     -0.00000       0.00000      -0.00000
Nuclear contribution   :      0.00000       0.00000       0.00000
                        -----------------------------------------
Total Dipole Moment    :     -0.00000       0.00000      -0.00000
                        -----------------------------------------
Magnitude (a.u.)       :      0.00000
Magnitude (Debye)      :      0.00000

Rotational constants in cm-1:     0.000000     0.000000     0.000000
Rotational constants in MHz :     0.000000     0.000000     0.000000

                             ****ORCA TERMINATED NORMALLY****
TOTAL RUN TIME: 0 days 0 hours 0 minutes 1 seconds 158 msec
