                         Program Version 4.2.0 -  RELEASE  -
|  1> # input to generate an atomic fitting density for Rn
|  2> # this file is use internally by ORCA
|  3> #
|  4> # atomic ground state (S=1): 1s2 2s2 2p6 3s2 3p6 4s2 3d10 4p6 5s2 4d10 5p6 6s2 4f14 5d10 6p6
|  5> #
|  6> ! RHF AllowRHF def2-SVP def2/J  NoMulliken NoLoewdin NoMayer NoPrintMOs
|  7>
|  8> %output print[p_atomdensfit] 2 end
|  9>
| 10> %scf
| 11>   guess hcore
| 12>   maxiter 1000
| 13>   maxdisk 500000
| 14>   SCFMode Conventional
| 15>   lshift 1.000000
| 16>   hftyp rohf
| 17>   rohf_case sahf
| 18>   rohf_numop   2
| 19>   rohf_norb[1] 3
| 20>   rohf_nel[1]  6
| 21> end
| 22>
| 23> %basis
| 24>   NewECP 86
| 25>     N_core 60
| 26>     lmax h
| 27>     s 3
| 28>       1      30.1512420000     49.9655510000  2
| 29>       2      14.5212410000    283.0700000000  2
| 30>       3       8.0520380000     62.0028700000  2
| 31>     p 4
| 32>       1      11.0099420000     71.9691190000  2
| 33>       2       9.6176250000    143.8605590000  2
| 34>       3       7.3360080000      4.7147610000  2
| 35>       4       6.4062530000      9.0130650000  2
| 36>     d 4
| 37>       1       8.3692200000     36.3683650000  2
| 38>       2       8.1169750000     54.5517610000  2
| 39>       3       5.3536560000      9.6344870000  2
| 40>       4       5.0972120000     14.3879020000  2
| 41>     f 4
| 42>       1       6.3485710000     21.7972900000  2
| 43>       2       6.2959490000     28.9468050000  2
| 44>       3       2.8821180000      1.4473650000  2
| 45>       4       2.9080480000      2.1779640000  2
| 46>     g 4
| 47>       1      11.0152050000    -25.2280950000  2
| 48>       2      10.9098530000    -30.5661210000  2
| 49>       3       3.4827610000     -0.5748000000  2
| 50>       4       3.6004180000     -0.7795380000  2
| 51>     h 1
| 52>       1       1.0000000000      0.0000000000  2
| 53>   end
| 54>   NewGTO 86
| 55>     s 9
| 56>      1    3407.2000000000      0.0002343019
| 57>      2     516.4830000000      0.0012840563
| 58>      3      97.0281000000      0.0037590621
| 59>      4      26.4655000000     -0.0906247055
| 60>      5      16.5631000000      0.3819622511
| 61>      6       7.2510600000     -0.9845151483
| 62>      7       2.1719300000      0.8954292641
| 63>      8       1.1801200000      0.5648149420
| 64>      9       0.0909250000      0.0021445275
| 65>     s 9
| 66>      1    3407.2000000000     -0.0001440487
| 67>      2     516.4830000000     -0.0009115402
| 68>      3      97.0281000000     -0.0015591831
| 69>      4      26.4655000000      0.0378168172
| 70>      5      16.5631000000     -0.1915663331
| 71>      6       7.2510600000      0.5917197936
| 72>      7       2.1719300000     -0.8404803750
| 73>      8       1.1801200000     -0.5223954924
| 74>      9       0.0909250000      0.1485476292
| 75>     s 1
| 76>      1       0.4014950000      1.0000000000
| 77>     s 1
| 78>      1       0.1948420000      1.0000000000
| 79>     s 1
| 80>      1       0.1060000000      1.0000000000
| 81>     s 1
| 82>      1       0.0429000000      1.0000000000
| 83>     p 9
| 84>      1      20.7239000000     -0.0087119892
| 85>      2      12.9996000000      0.1615287992
| 86>      3       8.1734800000     -0.4339184606
| 87>      4       2.7474200000      0.4447674472
| 88>      5       1.5639000000      0.5621843012
| 89>      6       0.8110200000      0.1912547623
| 90>      7       0.4009630000      0.0133509834
| 91>      8       0.1737640000      0.0015259981
| 92>      9       0.0715760000     -0.0001559998
| 93>     p 9
| 94>      1      20.7239000000     -0.0002330000
| 95>      2      12.9996000000     -0.0514809982
| 96>      3       8.1734800000      0.1655769943
| 97>      4       2.7474200000     -0.2323409920
| 98>      5       1.5639000000     -0.2874579901
| 99>      6       0.8110200000     -0.0486089983
|100>      7       0.4009630000      0.4450459846
|101>      8       0.1737640000      0.5480679810
|102>      9       0.0715760000      0.1999229931
|103>     p 1
|104>      1       0.6463000000      1.0000000000
|105>     p 1
|106>      1       0.1083000000      1.0000000000
|107>     p 1
|108>      1       0.0426000000      1.0000000000
|109>   end
|110>   NewAuxGTO 86
|111>     S 1
|112>      1 1310.72 1.0
|113>     S 1
|114>      1  655.36 1.0
|115>     S 1
|116>      1  327.68 1.0
|117>     S 1
|118>      1  163.84 1.0
|119>     S 1
|120>      1   81.82 1.0
|121>     S 1
|122>      1   40.96 1.0
|123>     S 1
|124>      1   20.48 1.0
|125>     S 1
|126>      1   10.24 1.0
|127>     S 1
|128>      1    5.12 1.0
|129>     S 1
|130>      1    2.56 1.0
|131>     S 1
|132>      1    1.28 1.0
|133>     S 1
|134>      1    0.64 1.0
|135>     S 1
|136>      1    0.32 1.0
|137>     S 1
|138>      1    0.16 1.0
|139>     S 1
|140>      1    0.08 1.0
|141>     S 1
|142>      1    0.04 1.0
|143>     S 1
|144>      1    0.02 1.0
|145>     S 1
|146>      1    0.01 1.0
|147>   end
|148> end
|149>
|150> * xyz 0 1
|151> 86  0.0 0.0 0.0
|152> *
|153>
|154>
|155>                          ****END OF INPUT****

CARTESIAN COORDINATES (ANGSTROEM)
---------------------------------
  Rn     0.000000    0.000000    0.000000

 Total Charge           Charge          ....    0
 Multiplicity           Mult            ....    1
 Number of Electrons    NEL             ....   26
 Basis Dimension        Dim             ....   21

ORBITAL ENERGIES
----------------

  NO   OCC          E(Eh)            E(eV)
   0   2.0000     -13.135464      -357.4342
   1   2.0000      -9.943131      -270.5663
   2   2.0000      -9.940849      -270.5043
   3   2.0000      -9.940849      -270.5043
   4   2.0000      -3.820492      -103.9609
   5   2.0000      -2.539733       -69.1096
   6   2.0000      -2.282223       -62.1024
   7   2.0000      -2.282223       -62.1024
   8   2.0000      -0.592851       -16.1323
   9   2.0000      -0.428605       -11.6629
  10   2.0000      -0.688397       -18.7322
  11   2.0000      -0.688397       -18.7322
  12   2.0000      -0.365732        -9.9521
  13   0.0000       0.102104         2.7784
  14   0.0000       0.102105         2.7784
  15   0.0000       0.102105         2.7784
  16   0.0000       0.434254        11.8167
  17   0.0000       3.973095       108.1134

CleanUpVectors: The p-vectors have cracked symmetry
CleanUpVectors: The p-vectors have cracked symmetry
CleanUpVectors: The p-vectors have cracked symmetry
CleanUpVectors: The p-vectors have cracked symmetry
CleanUpVectors: The p-vectors have cracked symmetry
CleanUpVectors: The p-vectors have cracked symmetry
CleanUpVectors: The p-vectors have cracked symmetry
CleanUpVectors: The p-vectors have cracked symmetry
CleanUpVectors: The p-vectors have cracked symmetry
--------------------------
ATOM BASIS FOR ELEMENT Rn
--------------------------
 NewGTO Rn
 S 22
    1       3407.200000000000        -0.000218901431
    2        516.483000000000        -0.001199656350
    3         97.028100000000        -0.003511982081
    4         26.465500000000         0.084668019140
    5         16.563100000000        -0.356856190687
    6          7.251060000000         0.919803788159
    7          2.171930000000        -0.836573444878
    8          1.180120000000        -0.527690126615
    9          0.090925000000        -0.002003569495
   10       3407.200000000000        -0.000024283588
   11        516.483000000000        -0.000153666550
   12         97.028100000000        -0.000262845553
   13         26.465500000000         0.006375121840
   14         16.563100000000        -0.032294063975
   15          7.251060000000         0.099751540682
   16          2.171930000000        -0.141687354769
   17          1.180120000000        -0.088064918186
   18          0.090925000000         0.025042013192
   19          0.401495000000         0.269340228964
   20          0.194842000000        -0.275737509980
   21          0.106000000000         0.126630243895
   22          0.042900000000        -0.028121251205
 P 43
    1         20.723900000000         0.000165617790
    2         12.999600000000        -0.003070715791
    3          8.173480000000         0.008248933166
    4          2.747420000000        -0.008455175982
    5          1.563900000000        -0.010687309134
    6          0.811020000000        -0.003635816162
    7          0.400963000000        -0.000253806601
    8          0.173764000000        -0.000029009728
    9          0.071576000000         0.000002965608
   10         20.723900000000        -0.000166615083
   11         12.999600000000         0.003089206568
   12          8.173480000000        -0.008298605359
   13          2.747420000000         0.008506090097
   14          1.563900000000         0.010751664375
   15          0.811020000000         0.003657709776
   16          0.400963000000         0.000255334936
   17          0.173764000000         0.000029184414
   18          0.071576000000        -0.000002983466
   19         20.723900000000         0.010041278472
   20         12.999600000000        -0.186175122219
   21          8.173480000000         0.500126434639
   22          2.747420000000        -0.512630776999
   23          1.563900000000        -0.647963282734
   24          0.811020000000        -0.220436720403
   25          0.400963000000        -0.015388097841
   26          0.173764000000        -0.001758837335
   27          0.071576000000         0.000179802499
   28         20.723900000000         0.000000042639
   29         12.999600000000         0.000009421015
   30          8.173480000000        -0.000030300565
   31          2.747420000000         0.000042518366
   32          1.563900000000         0.000052604768
   33          0.811020000000         0.000008895439
   34          0.400963000000        -0.000081443347
   35          0.173764000000        -0.000100296357
   36          0.071576000000        -0.000036585877
   37         20.723900000000        -0.000000042896
   38         12.999600000000        -0.000009477745
   39          8.173480000000         0.000030483024
   40          2.747420000000        -0.000042774397
   41          1.563900000000        -0.000052921536
   42          0.811020000000        -0.000008949005
   43          0.400963000000         0.000081933771
 S 22
    1       3407.200000000000         0.000073915876
    2        516.483000000000         0.000405084835
    3         97.028100000000         0.001185881841
    4         26.465500000000        -0.028589629474
    5         16.563100000000         0.120498700347
    6          7.251060000000        -0.310587749184
    7          2.171930000000         0.282483575972
    8          1.180120000000         0.178183750493
    9          0.090925000000         0.000676540092
   10       3407.200000000000        -0.000241233173
   11        516.483000000000        -0.001526523565
   12         97.028100000000        -0.002611107820
   13         26.465500000000         0.063330462681
   14         16.563100000000        -0.320809243285
   15          7.251060000000         0.990931841465
   16          2.171930000000        -1.407522233872
   17          1.180120000000        -0.874836929330
   18          0.090925000000         0.248767368171
   19          0.401495000000         2.650830546730
   20          0.194842000000        -1.589619889246
   21          0.106000000000         0.581461786404
   22          0.042900000000        -0.168155873675
 P 43
    1         20.723900000000         0.000050604443
    2         12.999600000000        -0.000938255859
    3          8.173480000000         0.002520457901
    4          2.747420000000        -0.002583475303
    5          1.563900000000        -0.003265502606
    6          0.811020000000        -0.001110922029
    7          0.400963000000        -0.000077550495
    8          0.173764000000        -0.000008863910
    9         20.723900000000        -0.000050909165
   10         12.999600000000         0.000943905708
   11          8.173480000000        -0.002535635217
   12          2.747420000000         0.002599032087
   13          1.563900000000         0.003285166320
   14          0.811020000000         0.001117611613
   15          0.400963000000         0.000078017477
   16          0.173764000000         0.000008917285
   17         20.723900000000         0.003068108220
   18         12.999600000000        -0.056885726697
   19          8.173480000000         0.152813412101
   20          2.747420000000        -0.156634108409
   21          1.563900000000        -0.197984896004
   22          0.811020000000        -0.067354342950
   23          0.400963000000        -0.004701826526
   24          0.173764000000        -0.000537411974
   25          0.071576000000         0.000054938575
   26         20.723900000000        -0.000004514404
   27         12.999600000000        -0.000997450657
   28          8.173480000000         0.003208074582
   29          2.747420000000        -0.004501635230
   30          1.563900000000        -0.005569533831
   31          0.811020000000        -0.000941805307
   32          0.400963000000         0.008622820561
   33          0.173764000000         0.010618884383
   34          0.071576000000         0.003873532523
   35         20.723900000000         0.000004541588
   36         12.999600000000         0.001003456956
   37          8.173480000000        -0.003227392485
   38          2.747420000000         0.004528742503
   39          1.563900000000         0.005603071616
   40          0.811020000000         0.000947476529
   41          0.400963000000        -0.008674744171
   42          0.173764000000        -0.010682827591
   43          0.071576000000        -0.003896857581
 S 22
    1       3407.200000000000        -0.000124919363
    2        516.483000000000        -0.000684601768
    3         97.028100000000        -0.002004164895
    4         26.465500000000         0.048317066484
    5         16.563100000000        -0.203645301563
    6          7.251060000000         0.524899734704
    7          2.171930000000        -0.477403099367
    8          1.180120000000        -0.301134232139
    9          0.090925000000        -0.001143366781
   10       3407.200000000000         0.000199483108
   11        516.483000000000         0.001262329142
   12         97.028100000000         0.002159205118
   13         26.465500000000        -0.052369901424
   14         16.563100000000         0.265286999896
   15          7.251060000000        -0.819431923569
   16          2.171930000000         1.163923292506
   17          1.180120000000         0.723429481033
   18          0.090925000000        -0.205713364423
   19          0.401495000000        -5.652184255381
   20          0.194842000000        12.462028572232
   21          0.106000000000       -10.185408558556
   22          0.042900000000         2.888214860794
 S 22
    1       3407.200000000000        -0.001182640574
    2        516.483000000000        -0.006481283676
    3         97.028100000000        -0.018973893765
    4         26.465500000000         0.457428871601
    5         16.563100000000        -1.927957288809
    6          7.251060000000         4.969347496098
    7          2.171930000000        -4.519685836396
    8          1.180120000000        -2.850907599170
    9          0.090925000000        -0.010824518425
   10       3407.200000000000         0.000629195668
   11        516.483000000000         0.003981550305
   12         97.028100000000         0.006810413789
   13         26.465500000000        -0.165181480816
   14         16.563100000000         0.836749703409
   15          7.251060000000        -2.584594870005
   16          2.171930000000         3.671165455441
   17          1.180120000000         2.281790679261
   18          0.090925000000        -0.648846708416
   19          0.401495000000         1.719463531947
   20          0.194842000000        -2.217752618326
   21          0.106000000000         1.935120965469
   22          0.042900000000        -0.191599851391
 P 43
    1         20.723900000000         0.002650573947
    2         12.999600000000        -0.049144232966
    3          8.173480000000         0.132017262691
    4          2.747420000000        -0.135318006135
    5          1.563900000000        -0.171041426700
    6          0.811020000000        -0.058188190843
    7          0.400963000000        -0.004061961965
    8          0.173764000000        -0.000464276380
    9          0.071576000000         0.000047462066
   10         20.723900000000         0.001627888264
   11         12.999600000000        -0.030182640328
   12          8.173480000000         0.081080308235
   13          2.747420000000        -0.083107507484
   14          1.563900000000        -0.105047562077
   15          0.811020000000        -0.035737117654
   16          0.400963000000        -0.002494712596
   17          0.173764000000        -0.000285142043
   18          0.071576000000         0.000029149513
   19         20.723900000000        -0.000016706186
   20         12.999600000000         0.000309749019
   21          8.173480000000        -0.000832085784
   22          2.747420000000         0.000852889894
   23          1.563900000000         0.001078049467
   24          0.811020000000         0.000366751782
   25          0.400963000000         0.000025601961
   26          0.173764000000         0.000002926267
   27         20.723900000000        -0.000267134962
   28         12.999600000000        -0.059023066616
   29          8.173480000000         0.189834352602
   30          2.747420000000        -0.266379408478
   31          1.563900000000        -0.329571156195
   32          0.811020000000        -0.055730313030
   33          0.400963000000         0.510246104670
   34          0.173764000000         0.628361028020
   35          0.071576000000         0.229212108396
   36         20.723900000000        -0.000164064795
   37         12.999600000000        -0.036249868666
   38          8.173480000000         0.116589508893
   39          2.747420000000        -0.163600760283
   40          1.563900000000        -0.202410884644
   41          0.811020000000        -0.034227576503
   42          0.400963000000         0.313375013229
   43          0.173764000000         0.385916999005
 P 43
    1         20.723900000000         0.000303643134
    2         12.999600000000        -0.005629840630
    3          8.173480000000         0.015123568007
    4          2.747420000000        -0.015501692935
    5          1.563900000000        -0.019594078804
    6          0.811020000000        -0.006665893865
    7          0.400963000000        -0.000465328221
    8          0.173764000000        -0.000053186343
    9          0.071576000000         0.000005437136
   10         20.723900000000        -0.000561100042
   11         12.999600000000         0.010403343483
   12          8.173480000000        -0.027946736506
   13          2.747420000000         0.028645470940
   14          1.563900000000         0.036207762426
   15          0.811020000000         0.012317859075
   16          0.400963000000         0.000859876795
   17          0.173764000000         0.000098282674
   18          0.071576000000        -0.000010047246
   19         20.723900000000        -0.000014318539
   20         12.999600000000         0.000265479711
   21          8.173480000000        -0.000713164141
   22          2.747420000000         0.000730994929
   23          1.563900000000         0.000923974711
   24          0.811020000000         0.000314335643
   25          0.400963000000         0.000021942930
   26          0.173764000000         0.000002508045
   27         20.723900000000         0.000027239990
   28         12.999600000000         0.006018634686
   29          8.173480000000        -0.019357578058
   30          2.747420000000         0.027162945600
   31          1.563900000000         0.033606664412
   32          0.811020000000         0.005682869670
   33          0.400963000000        -0.052030249871
   34          0.173764000000        -0.064074533833
   35          0.071576000000        -0.023372962898
   36         20.723900000000        -0.000050336589
   37         12.999600000000        -0.011121793325
   38          8.173480000000         0.035770734337
   39          2.747420000000        -0.050194218922
   40          1.563900000000        -0.062101522258
   41          0.811020000000        -0.010501335478
   42          0.400963000000         0.096146338144
   43          0.173764000000         0.118402887006
 P 21
    1         20.723900000000        -0.000641736281
    2         12.999600000000         0.011898418198
    3          8.173480000000        -0.031962989471
    4          2.747420000000         0.032762139717
    5          1.563900000000         0.041411215543
    6          0.811020000000         0.014088070706
    7          0.400963000000         0.000983450534
    8          0.173764000000         0.000112406974
    9          0.071576000000        -0.000011491145
   10         20.723900000000        -0.000136366376
   11         12.999600000000        -0.030129944956
   12          8.173480000000         0.096906157587
   13          2.747420000000        -0.135980683064
   14          1.563900000000        -0.168238645749
   15          0.811020000000        -0.028449068479
   16          0.400963000000         0.260469134008
   17          0.173764000000         0.320764139725
   18          0.071576000000         0.117007614231
   19          0.646300000000         0.248584581746
   20          0.108300000000        -1.960223239985
   21          0.042600000000         1.709384758451
 P 21
    1         20.723900000000         0.043705311518
    2         12.999600000000        -0.810339214848
    3          8.173480000000         2.176832530249
    4          2.747420000000        -2.231258486035
    5          1.563900000000        -2.820301936809
    6          0.811020000000        -0.959465028439
    7          0.400963000000        -0.066977687319
    8          0.173764000000        -0.007655452825
    9          0.071576000000         0.000782601964
   10         20.723900000000         0.001468181588
   11         12.999600000000         0.324392505049
   12          8.173480000000        -1.043335169043
   13          2.747420000000         1.464029040923
   14          1.563900000000         1.811332739562
   15          0.811020000000         0.306295434778
   16          0.400963000000        -2.804327554910
   17          0.173764000000        -3.453490637520
   18          0.071576000000        -1.259756469692
   19          0.646300000000         4.952691914091
   20          0.108300000000         5.069439128993
   21          0.042600000000        -0.647611939946
 end
  // -----------------------------------------------
  // The basis set
  // -----------------------------------------------
  BAS[ATNO] = new BFNGauss[NSH];
  // Basis function   1 L = s
  InitBFNGauss(BAS[ATNO][  0]);
  BAS[ATNO][  0].l  = 0;
  BAS[ATNO][  0].ng = 22;
  BAS[ATNO][  0].a[  0] =      3407.200000000000;     BAS[ATNO][  0].d[  0] =        -0.000218901431;
  BAS[ATNO][  0].a[  1] =       516.483000000000;     BAS[ATNO][  0].d[  1] =        -0.001199656350;
  BAS[ATNO][  0].a[  2] =        97.028100000000;     BAS[ATNO][  0].d[  2] =        -0.003511982081;
  BAS[ATNO][  0].a[  3] =        26.465500000000;     BAS[ATNO][  0].d[  3] =         0.084668019140;
  BAS[ATNO][  0].a[  4] =        16.563100000000;     BAS[ATNO][  0].d[  4] =        -0.356856190687;
  BAS[ATNO][  0].a[  5] =         7.251060000000;     BAS[ATNO][  0].d[  5] =         0.919803788159;
  BAS[ATNO][  0].a[  6] =         2.171930000000;     BAS[ATNO][  0].d[  6] =        -0.836573444878;
  BAS[ATNO][  0].a[  7] =         1.180120000000;     BAS[ATNO][  0].d[  7] =        -0.527690126615;
  BAS[ATNO][  0].a[  8] =         0.090925000000;     BAS[ATNO][  0].d[  8] =        -0.002003569495;
  BAS[ATNO][  0].a[  9] =      3407.200000000000;     BAS[ATNO][  0].d[  9] =        -0.000024283588;
  BAS[ATNO][  0].a[ 10] =       516.483000000000;     BAS[ATNO][  0].d[ 10] =        -0.000153666550;
  BAS[ATNO][  0].a[ 11] =        97.028100000000;     BAS[ATNO][  0].d[ 11] =        -0.000262845553;
  BAS[ATNO][  0].a[ 12] =        26.465500000000;     BAS[ATNO][  0].d[ 12] =         0.006375121840;
  BAS[ATNO][  0].a[ 13] =        16.563100000000;     BAS[ATNO][  0].d[ 13] =        -0.032294063975;
  BAS[ATNO][  0].a[ 14] =         7.251060000000;     BAS[ATNO][  0].d[ 14] =         0.099751540682;
  BAS[ATNO][  0].a[ 15] =         2.171930000000;     BAS[ATNO][  0].d[ 15] =        -0.141687354769;
  BAS[ATNO][  0].a[ 16] =         1.180120000000;     BAS[ATNO][  0].d[ 16] =        -0.088064918186;
  BAS[ATNO][  0].a[ 17] =         0.090925000000;     BAS[ATNO][  0].d[ 17] =         0.025042013192;
  BAS[ATNO][  0].a[ 18] =         0.401495000000;     BAS[ATNO][  0].d[ 18] =         0.269340228964;
  BAS[ATNO][  0].a[ 19] =         0.194842000000;     BAS[ATNO][  0].d[ 19] =        -0.275737509980;
  BAS[ATNO][  0].a[ 20] =         0.106000000000;     BAS[ATNO][  0].d[ 20] =         0.126630243895;
  BAS[ATNO][  0].a[ 21] =         0.042900000000;     BAS[ATNO][  0].d[ 21] =        -0.028121251205;

FINAL SINGLE POINT ENERGY      -251.902523588905

DIPOLE MOMENT
-------------
                                X             Y             Z
Electronic contribution:      0.00000       0.00000       0.00000
Nuclear contribution   :      0.00000       0.00000       0.00000
                        -----------------------------------------
Total Dipole Moment    :      0.00000       0.00000       0.00000
                        -----------------------------------------
Magnitude (a.u.)       :      0.00000
Magnitude (Debye)      :      0.00000

Rotational constants in cm-1:     0.000000     0.000000     0.000000
Rotational constants in MHz :     0.000000     0.000000     0.000000

                             ****ORCA TERMINATED NORMALLY****
TOTAL RUN TIME: 0 days 0 hours 0 minutes 1 seconds 55 msec
