                         Program Version 4.2.0 -  RELEASE  -
|  1> #
|  2> # 85_At CCSD(T)/aug-cc-pVTZ-PP
|  3> #
|  4> ! CCSD(T) aug-cc-pVTZ-PP tightscf slowconv
|  5>
|  6> *xyz 0 1
|  7>  Rn 0.0 0.0 0.0
|  8> *
|  9>
| 10> %maxcore 5000
| 11>
| 12> %pal
| 13> nprocs 24
| 14> end
| 15>
| 16>
| 17>                          ****END OF INPUT****

CARTESIAN COORDINATES (ANGSTROEM)
---------------------------------
  Rn     0.000000    0.000000    0.000000

 Total Charge           Charge          ....    0
 Multiplicity           Mult            ....    1
 Number of Electrons    NEL             ....   26
 Basis Dimension        Dim             ....   55

ORBITAL ENERGIES
----------------

  NO   OCC          E(Eh)            E(eV)
   0   2.0000      -8.326287      -226.5698
   1   2.0000      -5.537259      -150.6765
   2   2.0000      -5.537259      -150.6765
   3   2.0000      -5.537259      -150.6765
   4   2.0000      -2.087552       -56.8052
   5   2.0000      -2.087552       -56.8052
   6   2.0000      -2.087552       -56.8052
   7   2.0000      -2.087552       -56.8052
   8   2.0000      -2.087552       -56.8052
   9   2.0000      -1.070706       -29.1354
  10   2.0000      -0.427463       -11.6319
  11   2.0000      -0.427463       -11.6319
  12   2.0000      -0.427463       -11.6319
  13   0.0000       0.070254         1.9117
  14   0.0000       0.122583         3.3357
  15   0.0000       0.122583         3.3357
  16   0.0000       0.122583         3.3357
  17   0.0000       0.197590         5.3767

E(0)                                       ...   -287.542781362
E(0)                                       ...   -287.542781362
E(CORR)                                    ...     -0.238266653
E(TOT)                                     ...   -287.781048015
E(CCSD(T))                                 ...   -287.787762441

MULLIKEN ATOMIC CHARGES
-----------------------
   0 Rn:   -0.000000
Sum of atomic charges:   -0.0000000

LOEWDIN ATOMIC CHARGES
----------------------
   0 Rn:   -0.000000

FINAL SINGLE POINT ENERGY      -287.787762441347

DIPOLE MOMENT
-------------
                                X             Y             Z
Electronic contribution:     -0.00000      -0.00000       0.00000
Nuclear contribution   :      0.00000       0.00000       0.00000
                        -----------------------------------------
Total Dipole Moment    :     -0.00000      -0.00000       0.00000
                        -----------------------------------------
Magnitude (a.u.)       :      0.00000
Magnitude (Debye)      :      0.00000

Rotational constants in cm-1:     0.000000     0.000000     0.000000
Rotational constants in MHz :     0.000000     0.000000     0.000000

                             ****ORCA TERMINATED NORMALLY****
TOTAL RUN TIME: 0 days 0 hours 0 minutes 11 seconds 693 msec
