                         Program Version 4.2.0 -  RELEASE  -
|  1> #
|  2> # 06_C CCSD(T)/aug-cc-pVQZ
|  3> #
|  4> ! CCSD(T) aug-cc-pVQZ tightscf
|  5>
|  6> *xyz 0 3
|  7>  C 0.0 0.0 0.0
|  8> *
|  9>
| 10> %maxcore 5000
| 11>
| 12> %pal
| 13> nprocs 6
| 14> end
| 15>
| 16>
| 17>                          ****END OF INPUT****

CARTESIAN COORDINATES (ANGSTROEM)
---------------------------------
  C      0.000000    0.000000    0.000000

 Total Charge           Charge          ....    0
 Multiplicity           Mult            ....    3
 Number of Electrons    NEL             ....    6
 Basis Dimension        Dim             ....   80

ORBITAL ENERGIES
----------------
                 SPIN UP ORBITALS
  NO   OCC          E(Eh)            E(eV)
   0   1.0000     -11.345965      -308.7394
   1   1.0000      -0.829337       -22.5674
   2   1.0000      -0.439026       -11.9465
   3   1.0000      -0.439026       -11.9465
   4   0.0000       0.017089         0.4650
   5   0.0000       0.081497         2.2177
   6   0.0000       0.083418         2.2699
   7   0.0000       0.083418         2.2699
   8   0.0000       0.107166         2.9161

                 SPIN DOWN ORBITALS
  NO   OCC          E(Eh)            E(eV)
   0   1.0000     -11.300622      -307.5056
   1   1.0000      -0.583572       -15.8798
   2   0.0000       0.036010         0.9799
   3   0.0000       0.058282         1.5859
   4   0.0000       0.058282         1.5859
   5   0.0000       0.090457         2.4615
   6   0.0000       0.123549         3.3619

E(0)                                       ...    -37.693351537
E(0)                                       ...    -37.693351537
E(CORR)                                    ...     -0.091120560
E(TOT)                                     ...    -37.784472097
E(CCSD(T))                                 ...    -37.786875113

MULLIKEN ATOMIC CHARGES AND SPIN DENSITIES
------------------------------------------
   0 C :    0.000000    2.000000
Sum of atomic charges       :    0.0000000

LOEWDIN ATOMIC CHARGES AND SPIN DENSITIES
-----------------------------------------
   0 C :    0.000000    2.000000

FINAL SINGLE POINT ENERGY       -37.786875113400

DIPOLE MOMENT
-------------
                                X             Y             Z
Electronic contribution:     -0.00000      -0.00000       0.00000
Nuclear contribution   :      0.00000       0.00000       0.00000
                        -----------------------------------------
Total Dipole Moment    :     -0.00000      -0.00000       0.00000
                        -----------------------------------------
Magnitude (a.u.)       :      0.00000
Magnitude (Debye)      :      0.00000

Rotational constants in cm-1:     0.000000     0.000000     0.000000
Rotational constants in MHz :     0.000000     0.000000     0.000000

                             ****ORCA TERMINATED NORMALLY****
TOTAL RUN TIME: 0 days 0 hours 0 minutes 19 seconds 868 msec
