                         Program Version 4.2.0 -  RELEASE  -
|  1> #
|  2> # 09_F CCSD(T)/aug-cc-pVQZ
|  3> #
|  4> ! CCSD(T) aug-cc-pVQZ tightscf
|  5>
|  6> *xyz 0 2
|  7>  F 0.0 0.0 0.0
|  8> *
|  9>
| 10> %maxcore 5000
| 11>
| 12> %pal
| 13> nprocs 21
| 14> end
| 15>
| 16>
| 17>                          ****END OF INPUT****

CARTESIAN COORDINATES (ANGSTROEM)
---------------------------------
  F      0.000000    0.000000    0.000000

 Total Charge           Charge          ....    0
 Multiplicity           Mult            ....    2
 Number of Electrons    NEL             ....    9
 Basis Dimension        Dim             ....   80

ORBITAL ENERGIES
----------------
                 SPIN UP ORBITALS
  NO   OCC          E(Eh)            E(eV)
   0   1.0000     -26.408044      -718.5994
   1   1.0000      -1.673004       -45.5247
   2   1.0000      -0.845465       -23.0063
   3   1.0000      -0.731743       -19.9117
   4   1.0000      -0.731743       -19.9117
   5   0.0000       0.160335         4.3629
   6   0.0000       0.168306         4.5798
   7   0.0000       0.168306         4.5798
   8   0.0000       0.169810         4.6208
   9   0.0000       0.619076        16.8459

                 SPIN DOWN ORBITALS
  NO   OCC          E(Eh)            E(eV)
   0   1.0000     -26.359977      -717.2914
   1   1.0000      -1.477482       -40.2043
   2   1.0000      -0.679980       -18.5032
   3   1.0000      -0.679980       -18.5032
   4   0.0000       0.035278         0.9600
   5   0.0000       0.169843         4.6217
   6   0.0000       0.169843         4.6217
   7   0.0000       0.175442         4.7740
   8   0.0000       0.209680         5.7057

E(0)                                       ...    -99.414085366
E(0)                                       ...    -99.414085366
E(CORR)                                    ...     -0.233895855
E(TOT)                                     ...    -99.647981221
E(CCSD(T))                                 ...    -99.652908013

MULLIKEN ATOMIC CHARGES AND SPIN DENSITIES
------------------------------------------
   0 F :    0.000000    1.000000
Sum of atomic charges       :    0.0000000

LOEWDIN ATOMIC CHARGES AND SPIN DENSITIES
-----------------------------------------
   0 F :    0.000000    1.000000

FINAL SINGLE POINT ENERGY       -99.652908012818

DIPOLE MOMENT
-------------
                                X             Y             Z
Electronic contribution:     -0.00000      -0.00000      -0.00000
Nuclear contribution   :      0.00000       0.00000       0.00000
                        -----------------------------------------
Total Dipole Moment    :     -0.00000      -0.00000      -0.00000
                        -----------------------------------------
Magnitude (a.u.)       :      0.00000
Magnitude (Debye)      :      0.00000

Rotational constants in cm-1:     0.000000     0.000000     0.000000
Rotational constants in MHz :     0.000000     0.000000     0.000000

                             ****ORCA TERMINATED NORMALLY****
TOTAL RUN TIME: 0 days 0 hours 0 minutes 44 seconds 36 msec
