                         Program Version 4.2.0 -  RELEASE  -
|  1> #
|  2> # 10_Ne CCSD(T)/aug-cc-pVQZ
|  3> #
|  4> ! CCSD(T) aug-cc-pVQZ tightscf
|  5>
|  6> *xyz 0 1
|  7>  Ne 0.0 0.0 0.0
|  8> *
|  9>
| 10> %maxcore 5000
| 11>
| 12> %pal
| 13> nprocs 10
| 14> end
| 15>
| 16>
| 17>                          ****END OF INPUT****

CARTESIAN COORDINATES (ANGSTROEM)
---------------------------------
  Ne     0.000000    0.000000    0.000000

 Total Charge           Charge          ....    0
 Multiplicity           Mult            ....    1
 Number of Electrons    NEL             ....   10
 Basis Dimension        Dim             ....   80

ORBITAL ENERGIES
----------------

  NO   OCC          E(Eh)            E(eV)
   0   2.0000     -32.774212      -891.8316
   1   2.0000      -1.931207       -52.5508
   2   2.0000      -0.850654       -23.1475
   3   2.0000      -0.850654       -23.1475
   4   2.0000      -0.850654       -23.1475
   5   0.0000       0.206503         5.6192
   6   0.0000       0.206503         5.6192
   7   0.0000       0.206503         5.6192
   8   0.0000       0.210713         5.7338
   9   0.0000       0.821696        22.3595

E(0)                                       ...   -128.543755937
E(0)                                       ...   -128.543755937
E(CORR)                                    ...     -0.297757714
E(TOT)                                     ...   -128.841513651
E(CCSD(T))                                 ...   -128.847459270

MULLIKEN ATOMIC CHARGES
-----------------------
   0 Ne:    0.000000
Sum of atomic charges:    0.0000000

LOEWDIN ATOMIC CHARGES
----------------------
   0 Ne:    0.000000

FINAL SINGLE POINT ENERGY      -128.847459269703

DIPOLE MOMENT
-------------
                                X             Y             Z
Electronic contribution:     -0.00000      -0.00000       0.00000
Nuclear contribution   :      0.00000       0.00000       0.00000
                        -----------------------------------------
Total Dipole Moment    :     -0.00000      -0.00000       0.00000
                        -----------------------------------------
Magnitude (a.u.)       :      0.00000
Magnitude (Debye)      :      0.00000

Rotational constants in cm-1:     0.000000     0.000000     0.000000
Rotational constants in MHz :     0.000000     0.000000     0.000000

                             ****ORCA TERMINATED NORMALLY****
TOTAL RUN TIME: 0 days 0 hours 0 minutes 11 seconds 206 msec
