                         Program Version 4.2.0 -  RELEASE  -
|  1> #
|  2> # 13_Al CCSD(T)/aug-cc-pVQZ
|  3> #
|  4> ! CCSD(T) aug-cc-pVQZ tightscf
|  5>
|  6> *xyz 0 2
|  7>  Al 0.0 0.0 0.0
|  8> *
|  9>
| 10> %maxcore 5000
| 11>
| 12> %pal
| 13> nprocs 3
| 14> end
| 15>
| 16>
| 17>                          ****END OF INPUT****

CARTESIAN COORDINATES (ANGSTROEM)
---------------------------------
  Al     0.000000    0.000000    0.000000

 Total Charge           Charge          ....    0
 Multiplicity           Mult            ....    2
 Number of Electrons    NEL             ....   13
 Basis Dimension        Dim             ....   84

ORBITAL ENERGIES
----------------
                 SPIN UP ORBITALS
  NO   OCC          E(Eh)            E(eV)
   0   1.0000     -58.500887     -1591.8901
   1   1.0000      -4.910805      -133.6298
   2   1.0000      -3.224187       -87.7346
   3   1.0000      -3.218102       -87.5690
   4   1.0000      -3.218102       -87.5690
   5   1.0000      -0.425551       -11.5798
   6   1.0000      -0.218387        -5.9426
   7   0.0000       0.009404         0.2559
   8   0.0000       0.009404         0.2559
   9   0.0000       0.035342         0.9617
  10   0.0000       0.036302         0.9878
  11   0.0000       0.047820         1.3013

                 SPIN DOWN ORBITALS
  NO   OCC          E(Eh)            E(eV)
   0   1.0000     -58.498320     -1591.8202
   1   1.0000      -4.907514      -133.5402
   2   1.0000      -3.216831       -87.5344
   3   1.0000      -3.216831       -87.5344
   4   1.0000      -3.207358       -87.2766
   5   1.0000      -0.363479        -9.8908
   6   0.0000       0.013211         0.3595
   7   0.0000       0.013211         0.3595
   8   0.0000       0.026276         0.7150
   9   0.0000       0.039156         1.0655
  10   0.0000       0.051040         1.3889

E(0)                                       ...   -241.880424771
E(0)                                       ...   -241.880424771
E(CORR)                                    ...     -0.052041888
E(TOT)                                     ...   -241.932466659
E(CCSD(T))                                 ...   -241.933748142

MULLIKEN ATOMIC CHARGES AND SPIN DENSITIES
------------------------------------------
   0 Al:   -0.000000    1.000000
Sum of atomic charges       :   -0.0000000

LOEWDIN ATOMIC CHARGES AND SPIN DENSITIES
-----------------------------------------
   0 Al:   -0.000000    1.000000

FINAL SINGLE POINT ENERGY      -241.933748141587

DIPOLE MOMENT
-------------
                                X             Y             Z
Electronic contribution:     -0.00000       0.00000      -0.00000
Nuclear contribution   :      0.00000       0.00000       0.00000
                        -----------------------------------------
Total Dipole Moment    :     -0.00000       0.00000      -0.00000
                        -----------------------------------------
Magnitude (a.u.)       :      0.00000
Magnitude (Debye)      :      0.00000

Rotational constants in cm-1:     0.000000     0.000000     0.000000
Rotational constants in MHz :     0.000000     0.000000     0.000000

                             ****ORCA TERMINATED NORMALLY****
TOTAL RUN TIME: 0 days 0 hours 0 minutes 41 seconds 115 msec
