                         Program Version 4.2.0 -  RELEASE  -
|  1> #
|  2> # 14_Si CCSD(T)/aug-cc-pVQZ
|  3> #
|  4> ! CCSD(T) aug-cc-pVQZ tightscf
|  5>
|  6> *xyz 0 3
|  7>  Si 0.0 0.0 0.0
|  8> *
|  9>
| 10> %maxcore 5000
| 11>
| 12> %pal
| 13> nprocs 6
| 14> end
| 15>
| 16>
| 17>                          ****END OF INPUT****

CARTESIAN COORDINATES (ANGSTROEM)
---------------------------------
  Si     0.000000    0.000000    0.000000

 Total Charge           Charge          ....    0
 Multiplicity           Mult            ....    3
 Number of Electrons    NEL             ....   14
 Basis Dimension        Dim             ....   84

ORBITAL ENERGIES
----------------
                 SPIN UP ORBITALS
  NO   OCC          E(Eh)            E(eV)
   0   1.0000     -68.815806     -1872.5733
   1   1.0000      -6.160877      -167.6460
   2   1.0000      -4.268210      -116.1439
   3   1.0000      -4.268210      -116.1439
   4   1.0000      -4.258444      -115.8782
   5   1.0000      -0.619878       -16.8677
   6   1.0000      -0.301334        -8.1997
   7   1.0000      -0.301334        -8.1997
   8   0.0000      -0.010179        -0.2770
   9   0.0000       0.051740         1.4079
  10   0.0000       0.054084         1.4717
  11   0.0000       0.054084         1.4717
  12   0.0000       0.062423         1.6986

                 SPIN DOWN ORBITALS
  NO   OCC          E(Eh)            E(eV)
   0   1.0000     -68.806913     -1872.3313
   1   1.0000      -6.149839      -167.3456
   2   1.0000      -4.253881      -115.7540
   3   1.0000      -4.240537      -115.3909
   4   1.0000      -4.240537      -115.3909
   5   1.0000      -0.462901       -12.5962
   6   0.0000       0.005127         0.1395
   7   0.0000       0.031554         0.8586
   8   0.0000       0.031554         0.8586
   9   0.0000       0.058794         1.5999
  10   0.0000       0.067538         1.8378

E(0)                                       ...   -288.858432542
E(0)                                       ...   -288.858432542
E(CORR)                                    ...     -0.076498528
E(TOT)                                     ...   -288.934931070
E(CCSD(T))                                 ...   -288.937789427

MULLIKEN ATOMIC CHARGES AND SPIN DENSITIES
------------------------------------------
   0 Si:   -0.000000    2.000000
Sum of atomic charges       :   -0.0000000

LOEWDIN ATOMIC CHARGES AND SPIN DENSITIES
-----------------------------------------
   0 Si:   -0.000000    2.000000

FINAL SINGLE POINT ENERGY      -288.937789427162

DIPOLE MOMENT
-------------
                                X             Y             Z
Electronic contribution:     -0.00000      -0.00000      -0.00000
Nuclear contribution   :      0.00000       0.00000       0.00000
                        -----------------------------------------
Total Dipole Moment    :     -0.00000      -0.00000      -0.00000
                        -----------------------------------------
Magnitude (a.u.)       :      0.00000
Magnitude (Debye)      :      0.00000

Rotational constants in cm-1:     0.000000     0.000000     0.000000
Rotational constants in MHz :     0.000000     0.000000     0.000000

                             ****ORCA TERMINATED NORMALLY****
TOTAL RUN TIME: 0 days 0 hours 0 minutes 36 seconds 618 msec
