                         Program Version 4.2.0 -  RELEASE  -
|  1> #
|  2> # 16_S CCSD(T)/aug-cc-pVQZ
|  3> #
|  4> ! CCSD(T) aug-cc-pVQZ tightscf
|  5>
|  6> *xyz 0 3
|  7>  S 0.0 0.0 0.0
|  8> *
|  9>
| 10> %maxcore 5000
| 11>
| 12> %pal
| 13> nprocs 15
| 14> end
| 15>
| 16>
| 17>                          ****END OF INPUT****

CARTESIAN COORDINATES (ANGSTROEM)
---------------------------------
  S      0.000000    0.000000    0.000000

 Total Charge           Charge          ....    0
 Multiplicity           Mult            ....    3
 Number of Electrons    NEL             ....   16
 Basis Dimension        Dim             ....   84

ORBITAL ENERGIES
----------------
                 SPIN UP ORBITALS
  NO   OCC          E(Eh)            E(eV)
   0   1.0000     -92.012687     -2503.7925
   1   1.0000      -9.013146      -245.2602
   2   1.0000      -6.705899      -182.4768
   3   1.0000      -6.705899      -182.4768
   4   1.0000      -6.685298      -181.9162
   5   1.0000      -0.989886       -26.9362
   6   1.0000      -0.486998       -13.2519
   7   1.0000      -0.486998       -13.2519
   8   1.0000      -0.415621       -11.3096
   9   0.0000       0.078668         2.1407
  10   0.0000       0.078668         2.1407
  11   0.0000       0.080865         2.2005
  12   0.0000       0.085166         2.3175
  13   0.0000       0.194952         5.3049

                 SPIN DOWN ORBITALS
  NO   OCC          E(Eh)            E(eV)
   0   1.0000     -91.994865     -2503.3075
   1   1.0000      -8.994125      -244.7426
   2   1.0000      -6.675489      -181.6493
   3   1.0000      -6.659612      -181.2173
   4   1.0000      -6.659612      -181.2173
   5   1.0000      -0.773997       -21.0615
   6   1.0000      -0.379463       -10.3257
   7   0.0000       0.001095         0.0298
   8   0.0000       0.001095         0.0298
   9   0.0000       0.086370         2.3502
  10   0.0000       0.088928         2.4199
  11   0.0000       0.100896         2.7455

E(0)                                       ...   -397.512691371
E(0)                                       ...   -397.512691371
E(CORR)                                    ...     -0.149440515
E(TOT)                                     ...   -397.662131886
E(CCSD(T))                                 ...   -397.667984037

MULLIKEN ATOMIC CHARGES AND SPIN DENSITIES
------------------------------------------
   0 S :   -0.000000    2.000000
Sum of atomic charges       :   -0.0000000

LOEWDIN ATOMIC CHARGES AND SPIN DENSITIES
-----------------------------------------
   0 S :   -0.000000    2.000000

FINAL SINGLE POINT ENERGY      -397.667984036866

DIPOLE MOMENT
-------------
                                X             Y             Z
Electronic contribution:     -0.00000      -0.00000       0.00000
Nuclear contribution   :      0.00000       0.00000       0.00000
                        -----------------------------------------
Total Dipole Moment    :     -0.00000      -0.00000       0.00000
                        -----------------------------------------
Magnitude (a.u.)       :      0.00000
Magnitude (Debye)      :      0.00000

Rotational constants in cm-1:     0.000000     0.000000     0.000000
Rotational constants in MHz :     0.000000     0.000000     0.000000

                             ****ORCA TERMINATED NORMALLY****
TOTAL RUN TIME: 0 days 0 hours 0 minutes 25 seconds 874 msec
