                         Program Version 4.2.0 -  RELEASE  -
|  1> #
|  2> # 17_Cl CCSD(T)/aug-cc-pVQZ
|  3> #
|  4> ! CCSD(T) aug-cc-pVQZ tightscf
|  5>
|  6> *xyz 0 2
|  7>  Cl 0.0 0.0 0.0
|  8> *
|  9>
| 10> %maxcore 5000
| 11>
| 12> %pal
| 13> nprocs 21
| 14> end
| 15>
| 16>
| 17>                          ****END OF INPUT****

CARTESIAN COORDINATES (ANGSTROEM)
---------------------------------
  Cl     0.000000    0.000000    0.000000

 Total Charge           Charge          ....    0
 Multiplicity           Mult            ....    2
 Number of Electrons    NEL             ....   17
 Basis Dimension        Dim             ....   84

ORBITAL ENERGIES
----------------
                 SPIN UP ORBITALS
  NO   OCC          E(Eh)            E(eV)
   0   1.0000    -104.889398     -2854.1856
   1   1.0000     -10.612500      -288.7808
   2   1.0000      -8.098204      -220.3633
   3   1.0000      -8.073753      -219.6980
   4   1.0000      -8.073753      -219.6980
   5   1.0000      -1.136149       -30.9162
   6   1.0000      -0.581781       -15.8311
   7   1.0000      -0.502587       -13.6761
   8   1.0000      -0.502587       -13.6761
   9   0.0000       0.090620         2.4659
  10   0.0000       0.097092         2.6420
  11   0.0000       0.097092         2.6420
  12   0.0000       0.099935         2.7194
  13   0.0000       0.248808         6.7704

                 SPIN DOWN ORBITALS
  NO   OCC          E(Eh)            E(eV)
   0   1.0000    -104.878152     -2853.8796
   1   1.0000     -10.601122      -288.4712
   2   1.0000      -8.067826      -219.5367
   3   1.0000      -8.067826      -219.5367
   4   1.0000      -8.048556      -219.0123
   5   1.0000      -1.014476       -27.6053
   6   1.0000      -0.480891       -13.0857
   7   1.0000      -0.480891       -13.0857
   8   0.0000      -0.041007        -1.1159
   9   0.0000       0.097688         2.6582
  10   0.0000       0.097688         2.6582
  11   0.0000       0.104178         2.8348
  12   0.0000       0.106984         2.9112

E(0)                                       ...   -459.489179557
E(0)                                       ...   -459.489179557
E(CORR)                                    ...     -0.198246265
E(TOT)                                     ...   -459.687425822
E(CCSD(T))                                 ...   -459.694743033

MULLIKEN ATOMIC CHARGES AND SPIN DENSITIES
------------------------------------------
   0 Cl:    0.000000    1.000000
Sum of atomic charges       :    0.0000000

LOEWDIN ATOMIC CHARGES AND SPIN DENSITIES
-----------------------------------------
   0 Cl:    0.000000    1.000000

FINAL SINGLE POINT ENERGY      -459.694743032900

DIPOLE MOMENT
-------------
                                X             Y             Z
Electronic contribution:      0.00000      -0.00000       0.00000
Nuclear contribution   :      0.00000       0.00000       0.00000
                        -----------------------------------------
Total Dipole Moment    :      0.00000      -0.00000       0.00000
                        -----------------------------------------
Magnitude (a.u.)       :      0.00000
Magnitude (Debye)      :      0.00000

Rotational constants in cm-1:     0.000000     0.000000     0.000000
Rotational constants in MHz :     0.000000     0.000000     0.000000

                             ****ORCA TERMINATED NORMALLY****
TOTAL RUN TIME: 0 days 0 hours 0 minutes 49 seconds 161 msec
