                         Program Version 4.2.0 -  RELEASE  -
|  1> #
|  2> # 24_Cr CCSD(T)/aug-cc-pVQZ
|  3> #
|  4> ! CCSD(T) aug-cc-pVQZ tightscf
|  5>
|  6> *xyz 0 7
|  7>  Cr 0.0 0.0 0.0
|  8> *
|  9>
| 10> %maxcore 5000
| 11>
| 12> %pal
| 13> nprocs 24
| 14> end
| 15>
| 16>
| 17>                          ****END OF INPUT****

CARTESIAN COORDINATES (ANGSTROEM)
---------------------------------
  Cr     0.000000    0.000000    0.000000

 Total Charge           Charge          ....    0
 Multiplicity           Mult            ....    7
 Number of Electrons    NEL             ....   24
 Basis Dimension        Dim             ....  140

ORBITAL ENERGIES
----------------
                 SPIN UP ORBITALS
  NO   OCC          E(Eh)            E(eV)
   0   1.0000    -220.388210     -5997.0681
   1   1.0000     -26.260276      -714.5784
   2   1.0000     -22.189095      -603.7960
   3   1.0000     -22.189095      -603.7960
   4   1.0000     -22.189095      -603.7960
   5   1.0000      -3.458752       -94.1174
   6   1.0000      -2.261538       -61.5396
   7   1.0000      -2.261538       -61.5396
   8   1.0000      -2.261538       -61.5396
   9   1.0000      -0.373671       -10.1681
  10   1.0000      -0.373671       -10.1681
  11   1.0000      -0.373671       -10.1681
  12   1.0000      -0.373671       -10.1681
  13   1.0000      -0.373671       -10.1681
  14   1.0000      -0.222066        -6.0427
  15   0.0000       0.016923         0.4605
  16   0.0000       0.016923         0.4605
  17   0.0000       0.016923         0.4605
  18   0.0000       0.024674         0.6714
  19   0.0000       0.055574         1.5123

                 SPIN DOWN ORBITALS
  NO   OCC          E(Eh)            E(eV)
   0   1.0000    -220.387140     -5997.0390
   1   1.0000     -26.159562      -711.8379
   2   1.0000     -22.091444      -601.1388
   3   1.0000     -22.091444      -601.1388
   4   1.0000     -22.091444      -601.1388
   5   1.0000      -3.111220       -84.6606
   6   1.0000      -1.839852       -50.0649
   7   1.0000      -1.839852       -50.0649
   8   1.0000      -1.839852       -50.0649
   9   0.0000       0.009570         0.2604
  10   0.0000       0.025347         0.6897
  11   0.0000       0.025347         0.6897
  12   0.0000       0.025347         0.6897
  13   0.0000       0.052842         1.4379

E(0)                                       ...  -1043.356655775
E(0)                                       ...  -1043.356655775
E(CORR)                                    ...     -0.480873473
E(TOT)                                     ...  -1043.837529248
E(CCSD(T))                                 ...  -1043.851682625

MULLIKEN ATOMIC CHARGES AND SPIN DENSITIES
------------------------------------------
   0 Cr:   -0.000000    6.000000
Sum of atomic charges       :   -0.0000000

LOEWDIN ATOMIC CHARGES AND SPIN DENSITIES
-----------------------------------------
   0 Cr:   -0.000000    6.000000

FINAL SINGLE POINT ENERGY     -1043.851682625413

DIPOLE MOMENT
-------------
                                X             Y             Z
Electronic contribution:     -0.00000      -0.00000      -0.00000
Nuclear contribution   :      0.00000       0.00000       0.00000
                        -----------------------------------------
Total Dipole Moment    :     -0.00000      -0.00000      -0.00000
                        -----------------------------------------
Magnitude (a.u.)       :      0.00000
Magnitude (Debye)      :      0.00000

Rotational constants in cm-1:     0.000000     0.000000     0.000000
Rotational constants in MHz :     0.000000     0.000000     0.000000

                             ****ORCA TERMINATED NORMALLY****
TOTAL RUN TIME: 0 days 0 hours 16 minutes 34 seconds 923 msec
