                         Program Version 4.2.0 -  RELEASE  -
|  1> #
|  2> # 25_Mn CCSD(T)/aug-cc-pVQZ
|  3> #
|  4> ! CCSD(T) aug-cc-pVQZ tightscf
|  5>
|  6> *xyz 0 6
|  7>  Mn 0.0 0.0 0.0
|  8> *
|  9>
| 10> %maxcore 5000
| 11>
| 12> %pal
| 13> nprocs 24
| 14> end
| 15>
| 16>
| 17>                          ****END OF INPUT****

CARTESIAN COORDINATES (ANGSTROEM)
---------------------------------
  Mn     0.000000    0.000000    0.000000

 Total Charge           Charge          ....    0
 Multiplicity           Mult            ....    6
 Number of Electrons    NEL             ....   25
 Basis Dimension        Dim             ....  140

ORBITAL ENERGIES
----------------
                 SPIN UP ORBITALS
  NO   OCC          E(Eh)            E(eV)
   0   1.0000    -240.360001     -6540.5281
   1   1.0000     -28.962786      -788.1175
   2   1.0000     -24.683351      -671.6681
   3   1.0000     -24.666644      -671.2135
   4   1.0000     -24.654126      -670.8729
   5   1.0000      -3.783923      -102.9658
   6   1.0000      -2.530058       -68.8464
   7   1.0000      -2.488684       -67.7205
   8   1.0000      -2.458304       -66.8938
   9   1.0000      -0.447718       -12.1830
  10   1.0000      -0.445172       -12.1137
  11   1.0000      -0.433774       -11.8036
  12   1.0000      -0.417828       -11.3697
  13   1.0000      -0.371871       -10.1191
  14   1.0000      -0.226469        -6.1625
  15   0.0000       0.016998         0.4625
  16   0.0000       0.018671         0.5081
  17   0.0000       0.019587         0.5330
  18   0.0000       0.027948         0.7605
  19   0.0000       0.061162         1.6643

                 SPIN DOWN ORBITALS
  NO   OCC          E(Eh)            E(eV)
   0   1.0000    -240.358005     -6540.4738
   1   1.0000     -28.863148      -785.4062
   2   1.0000     -24.571976      -668.6375
   3   1.0000     -24.571971      -668.6373
   4   1.0000     -24.571968      -668.6372
   5   1.0000      -3.467650       -94.3595
   6   1.0000      -2.138858       -58.2013
   7   1.0000      -2.115932       -57.5774
   8   1.0000      -2.084969       -56.7349
   9   1.0000      -0.227964        -6.2032
  10   0.0000       0.008307         0.2261
  11   0.0000       0.026114         0.7106
  12   0.0000       0.026365         0.7174
  13   0.0000       0.026568         0.7230
  14   0.0000       0.054182         1.4744

E(0)                                       ...  -1149.753135253
E(0)                                       ...  -1149.753135253
E(CORR)                                    ...     -0.559613743
E(TOT)                                     ...  -1150.312748996
E(CCSD(T))                                 ...  -1150.331718589

MULLIKEN ATOMIC CHARGES AND SPIN DENSITIES
------------------------------------------
   0 Mn:   -0.000000    5.000000
Sum of atomic charges       :   -0.0000000

LOEWDIN ATOMIC CHARGES AND SPIN DENSITIES
-----------------------------------------
   0 Mn:   -0.000000    5.000000

FINAL SINGLE POINT ENERGY     -1150.331718589142

DIPOLE MOMENT
-------------
                                X             Y             Z
Electronic contribution:     -0.00000       0.00000       0.00000
Nuclear contribution   :      0.00000       0.00000       0.00000
                        -----------------------------------------
Total Dipole Moment    :     -0.00000       0.00000       0.00000
                        -----------------------------------------
Magnitude (a.u.)       :      0.00000
Magnitude (Debye)      :      0.00000

Rotational constants in cm-1:     0.000000     0.000000     0.000000
Rotational constants in MHz :     0.000000     0.000000     0.000000

                             ****ORCA TERMINATED NORMALLY****
TOTAL RUN TIME: 0 days 0 hours 35 minutes 28 seconds 738 msec
