                         Program Version 4.2.0 -  RELEASE  -
|  1> #
|  2> # 28_Ni CCSD(T)/aug-cc-pVQZ
|  3> #
|  4> ! CCSD(T) aug-cc-pVQZ tightscf slowconv
|  5>
|  6> *xyz 0 3
|  7>  Ni 0.0 0.0 0.0
|  8> *
|  9>
| 10> %maxcore 5000
| 11>
| 12> %pal
| 13> nprocs 24
| 14> end
| 15>
| 16>
| 17>                          ****END OF INPUT****

CARTESIAN COORDINATES (ANGSTROEM)
---------------------------------
  Ni     0.000000    0.000000    0.000000

 Total Charge           Charge          ....    0
 Multiplicity           Mult            ....    3
 Number of Electrons    NEL             ....   28
 Basis Dimension        Dim             ....  140

ORBITAL ENERGIES
----------------
                 SPIN UP ORBITALS
  NO   OCC          E(Eh)            E(eV)
   0   1.0000    -305.397783     -8310.2962
   1   1.0000     -37.690113     -1025.6001
   2   1.0000     -32.734494      -890.7509
   3   1.0000     -32.722744      -890.4311
   4   1.0000     -32.693712      -889.6411
   5   1.0000      -4.705804      -128.0515
   6   1.0000      -3.156607       -85.8956
   7   1.0000      -3.130904       -85.1962
   8   1.0000      -3.068304       -83.4928
   9   1.0000      -0.549355       -14.9487
  10   1.0000      -0.491636       -13.3781
  11   1.0000      -0.468553       -12.7500
  12   1.0000      -0.458918       -12.4878
  13   1.0000      -0.452947       -12.3253
  14   1.0000      -0.236235        -6.4283
  15   0.0000       0.020820         0.5665
  16   0.0000       0.021342         0.5807
  17   0.0000       0.022514         0.6126
  18   0.0000       0.033297         0.9060
  19   0.0000       0.072336         1.9684

                 SPIN DOWN ORBITALS
  NO   OCC          E(Eh)            E(eV)
   0   1.0000    -305.395486     -8310.2336
   1   1.0000     -37.653562     -1024.6055
   2   1.0000     -32.684643      -889.3944
   3   1.0000     -32.683066      -889.3514
   4   1.0000     -32.682535      -889.3370
   5   1.0000      -4.605716      -125.3279
   6   1.0000      -3.040385       -82.7331
   7   1.0000      -2.995997       -81.5252
   8   1.0000      -2.977538       -81.0229
   9   1.0000      -0.475222       -12.9314
  10   1.0000      -0.430033       -11.7018
  11   1.0000      -0.411795       -11.2055
  12   1.0000      -0.401237       -10.9182
  13   0.0000       0.006031         0.1641
  14   0.0000       0.028661         0.7799
  15   0.0000       0.028759         0.7826
  16   0.0000       0.029020         0.7897
  17   0.0000       0.056796         1.5455

E(0)                                       ...  -1506.830405375
E(0)                                       ...  -1506.830405375
E(CORR)                                    ...     -0.805488530
E(TOT)                                     ...  -1507.635893905
E(CCSD(T))                                 ...  -1507.664814389

MULLIKEN ATOMIC CHARGES AND SPIN DENSITIES
------------------------------------------
   0 Ni:   -0.000000    2.000000
Sum of atomic charges       :   -0.0000000

LOEWDIN ATOMIC CHARGES AND SPIN DENSITIES
-----------------------------------------
   0 Ni:   -0.000000    2.000000

FINAL SINGLE POINT ENERGY     -1507.664814388546

DIPOLE MOMENT
-------------
                                X             Y             Z
Electronic contribution:     -0.00000       0.00000       0.00000
Nuclear contribution   :      0.00000       0.00000       0.00000
                        -----------------------------------------
Total Dipole Moment    :     -0.00000       0.00000       0.00000
                        -----------------------------------------
Magnitude (a.u.)       :      0.00000
Magnitude (Debye)      :      0.00000

Rotational constants in cm-1:     0.000000     0.000000     0.000000
Rotational constants in MHz :     0.000000     0.000000     0.000000

                             ****ORCA TERMINATED NORMALLY****
TOTAL RUN TIME: 0 days 0 hours 51 minutes 57 seconds 107 msec
