                         Program Version 4.2.0 -  RELEASE  -
|  1> #
|  2> # 30_Zn CCSD(T)/aug-cc-pVQZ
|  3> #
|  4> ! CCSD(T) aug-cc-pVQZ tightscf
|  5>
|  6> *xyz 0 1
|  7>  Zn 0.0 0.0 0.0
|  8> *
|  9>
| 10> %maxcore 5000
| 11>
| 12> %pal
| 13> nprocs 24
| 14> end
| 15>
| 16>
| 17>                          ****END OF INPUT****

CARTESIAN COORDINATES (ANGSTROEM)
---------------------------------
  Zn     0.000000    0.000000    0.000000

 Total Charge           Charge          ....    0
 Multiplicity           Mult            ....    1
 Number of Electrons    NEL             ....   30
 Basis Dimension        Dim             ....  140

ORBITAL ENERGIES
----------------

  NO   OCC          E(Eh)            E(eV)
   0   2.0000    -353.304543     -9613.9054
   1   2.0000     -44.361756     -1207.1447
   2   2.0000     -38.924845     -1059.1989
   3   2.0000     -38.924845     -1059.1989
   4   2.0000     -38.924845     -1059.1989
   5   2.0000      -5.637809      -153.4126
   6   2.0000      -3.839363      -104.4744
   7   2.0000      -3.839363      -104.4744
   8   2.0000      -3.839363      -104.4744
   9   2.0000      -0.782522       -21.2935
  10   2.0000      -0.782522       -21.2935
  11   2.0000      -0.782522       -21.2935
  12   2.0000      -0.782522       -21.2935
  13   2.0000      -0.782522       -21.2935
  14   2.0000      -0.292508        -7.9596
  15   0.0000       0.024452         0.6654
  16   0.0000       0.024452         0.6654
  17   0.0000       0.024452         0.6654
  18   0.0000       0.033039         0.8990
  19   0.0000       0.078141         2.1263

E(0)                                       ...  -1777.848119379
E(0)                                       ...  -1777.848119379
E(CORR)                                    ...     -0.921443140
E(TOT)                                     ...  -1778.769562519
E(CCSD(T))                                 ...  -1778.796253244

MULLIKEN ATOMIC CHARGES
-----------------------
   0 Zn:   -0.000000
Sum of atomic charges:   -0.0000000

LOEWDIN ATOMIC CHARGES
----------------------
   0 Zn:   -0.000000

FINAL SINGLE POINT ENERGY     -1778.796253244375

DIPOLE MOMENT
-------------
                                X             Y             Z
Electronic contribution:      0.00000       0.00000       0.00000
Nuclear contribution   :      0.00000       0.00000       0.00000
                        -----------------------------------------
Total Dipole Moment    :      0.00000       0.00000       0.00000
                        -----------------------------------------
Magnitude (a.u.)       :      0.00000
Magnitude (Debye)      :      0.00000

Rotational constants in cm-1:     0.000000     0.000000     0.000000
Rotational constants in MHz :     0.000000     0.000000     0.000000

                             ****ORCA TERMINATED NORMALLY****
TOTAL RUN TIME: 0 days 0 hours 11 minutes 4 seconds 956 msec
