                         Program Version 4.2.0 -  RELEASE  -
|  1> #
|  2> # 35_Br CCSD(T)/aug-cc-pVQZ
|  3> #
|  4> ! CCSD(T) aug-cc-pVQZ tightscf
|  5>
|  6> *xyz 0 2
|  7>  Br 0.0 0.0 0.0
|  8> *
|  9>
| 10> %maxcore 5000
| 11>
| 12> %pal
| 13> nprocs 24
| 14> end
| 15>
| 16>
| 17>                          ****END OF INPUT****

CARTESIAN COORDINATES (ANGSTROEM)
---------------------------------
  Br     0.000000    0.000000    0.000000

 Total Charge           Charge          ....    0
 Multiplicity           Mult            ....    2
 Number of Electrons    NEL             ....   35
 Basis Dimension        Dim             ....   93

ORBITAL ENERGIES
----------------
                 SPIN UP ORBITALS
  NO   OCC          E(Eh)            E(eV)
   0   1.0000    -490.061886    -13335.2619
   1   1.0000     -65.200534     -1774.1967
   2   1.0000     -58.560910     -1593.5234
   3   1.0000     -58.553560     -1593.3234
   4   1.0000     -58.553560     -1593.3234
   5   1.0000      -9.875508      -268.7262
   6   1.0000      -7.498789      -204.0524
   7   1.0000      -7.475545      -203.4199
   8   1.0000      -7.475545      -203.4199
   9   1.0000      -3.233335       -87.9835
  10   1.0000      -3.227863       -87.8346
  11   1.0000      -3.227863       -87.8346
  12   1.0000      -3.211665       -87.3939
  13   1.0000      -3.211665       -87.3939
  14   1.0000      -1.048006       -28.5177
  15   1.0000      -0.524045       -14.2600
  16   1.0000      -0.454280       -12.3616
  17   1.0000      -0.454280       -12.3616
  18   0.0000       0.071065         1.9338
  19   0.0000       0.076403         2.0790
  20   0.0000       0.076403         2.0790
  21   0.0000       0.082158         2.2356
  22   0.0000       0.204404         5.5621

                 SPIN DOWN ORBITALS
  NO   OCC          E(Eh)            E(eV)
   0   1.0000    -490.057684    -13335.1475
   1   1.0000     -65.198379     -1774.1381
   2   1.0000     -58.552315     -1593.2895
   3   1.0000     -58.552315     -1593.2895
   4   1.0000     -58.549574     -1593.2149
   5   1.0000      -9.867346      -268.5041
   6   1.0000      -7.473492      -203.3640
   7   1.0000      -7.473492      -203.3640
   8   1.0000      -7.469777      -203.2630
   9   1.0000      -3.222770       -87.6960
  10   1.0000      -3.219817       -87.6157
  11   1.0000      -3.219817       -87.6157
  12   1.0000      -3.211282       -87.3834
  13   1.0000      -3.211282       -87.3834
  14   1.0000      -0.941069       -25.6078
  15   1.0000      -0.434263       -11.8169
  16   1.0000      -0.434263       -11.8169
  17   0.0000      -0.049132        -1.3370
  18   0.0000       0.076842         2.0910
  19   0.0000       0.076842         2.0910
  20   0.0000       0.082022         2.2319
  21   0.0000       0.085939         2.3385

E(0)                                       ...  -2572.448189576
E(0)                                       ...  -2572.448189576
E(CORR)                                    ...     -0.280079730
E(TOT)                                     ...  -2572.728269306
E(CCSD(T))                                 ...  -2572.737164625

MULLIKEN ATOMIC CHARGES AND SPIN DENSITIES
------------------------------------------
   0 Br:    0.000000    1.000000
Sum of atomic charges       :    0.0000000

LOEWDIN ATOMIC CHARGES AND SPIN DENSITIES
-----------------------------------------
   0 Br:   -0.000000    1.000000

FINAL SINGLE POINT ENERGY     -2572.737164624639

DIPOLE MOMENT
-------------
                                X             Y             Z
Electronic contribution:     -0.00000       0.00000      -0.00000
Nuclear contribution   :      0.00000       0.00000       0.00000
                        -----------------------------------------
Total Dipole Moment    :     -0.00000       0.00000      -0.00000
                        -----------------------------------------
Magnitude (a.u.)       :      0.00000
Magnitude (Debye)      :      0.00000

Rotational constants in cm-1:     0.000000     0.000000     0.000000
Rotational constants in MHz :     0.000000     0.000000     0.000000

                             ****ORCA TERMINATED NORMALLY****
TOTAL RUN TIME: 0 days 0 hours 0 minutes 59 seconds 66 msec
