                         Program Version 4.2.0 -  RELEASE  -
|  1> #
|  2> # 36_Kr CCSD(T)/aug-cc-pVQZ
|  3> #
|  4> ! CCSD(T) aug-cc-pVQZ tightscf
|  5>
|  6> *xyz 0 1
|  7>  Kr 0.0 0.0 0.0
|  8> *
|  9>
| 10> %maxcore 5000
| 11>
| 12> %pal
| 13> nprocs 24
| 14> end
| 15>
| 16>
| 17>                          ****END OF INPUT****

CARTESIAN COORDINATES (ANGSTROEM)
---------------------------------
  Kr     0.000000    0.000000    0.000000

 Total Charge           Charge          ....    0
 Multiplicity           Mult            ....    1
 Number of Electrons    NEL             ....   36
 Basis Dimension        Dim             ....   93

ORBITAL ENERGIES
----------------

  NO   OCC          E(Eh)            E(eV)
   0   2.0000    -520.165459    -14154.4217
   1   2.0000     -69.903136     -1902.1610
   2   2.0000     -63.009807     -1714.5840
   3   2.0000     -63.009807     -1714.5840
   4   2.0000     -63.009807     -1714.5840
   5   2.0000     -10.849503      -295.2300
   6   2.0000      -8.331522      -226.7123
   7   2.0000      -8.331522      -226.7123
   8   2.0000      -8.331522      -226.7123
   9   2.0000      -3.825260      -104.0906
  10   2.0000      -3.825260      -104.0906
  11   2.0000      -3.825260      -104.0906
  12   2.0000      -3.825260      -104.0906
  13   2.0000      -3.825260      -104.0906
  14   2.0000      -1.152950       -31.3734
  15   2.0000      -0.524199       -14.2642
  16   2.0000      -0.524199       -14.2642
  17   2.0000      -0.524199       -14.2642
  18   0.0000       0.084162         2.2902
  19   0.0000       0.084162         2.2902
  20   0.0000       0.084162         2.2902
  21   0.0000       0.096151         2.6164
  22   0.0000       0.256019         6.9666

E(0)                                       ...  -2752.054819551
E(0)                                       ...  -2752.054819551
E(CORR)                                    ...     -0.322427413
E(TOT)                                     ...  -2752.377246964
E(CCSD(T))                                 ...  -2752.387081894

MULLIKEN ATOMIC CHARGES
-----------------------
   0 Kr:    0.000000
Sum of atomic charges:    0.0000000

LOEWDIN ATOMIC CHARGES
----------------------
   0 Kr:    0.000000

FINAL SINGLE POINT ENERGY     -2752.387081894075

DIPOLE MOMENT
-------------
                                X             Y             Z
Electronic contribution:     -0.00000       0.00000       0.00000
Nuclear contribution   :      0.00000       0.00000       0.00000
                        -----------------------------------------
Total Dipole Moment    :     -0.00000       0.00000       0.00000
                        -----------------------------------------
Magnitude (a.u.)       :      0.00000
Magnitude (Debye)      :      0.00000

Rotational constants in cm-1:     0.000000     0.000000     0.000000
Rotational constants in MHz :     0.000000     0.000000     0.000000

                             ****ORCA TERMINATED NORMALLY****
TOTAL RUN TIME: 0 days 0 hours 0 minutes 33 seconds 637 msec
