                         Program Version 4.2.0 -  RELEASE  -
|  1> # input to generate an atomic fitting density for Sr
|  2> # this file is use internally by ORCA
|  3> #
|  4> # atomic ground state (S=1): 1s2 2s2 2p6 3s2 3p6 4s2 3d10 4p6 5s2
|  5> #
|  6> ! RHF AllowRHF def2-SVP def2/J  NoMulliken NoLoewdin NoMayer NoPrintMOs
|  7>
|  8> %output print[p_atomdensfit] 2 end
|  9>
| 10> %scf
| 11>   guess hcore
| 12>   maxiter 1000
| 13>   maxdisk 500000
| 14>   SCFMode Conventional
| 15>   lshift 1.000000
| 16>   hftyp rohf
| 17>   rohf_case sahf
| 18>   rohf_numop   2
| 19>   rohf_norb[1] 1
| 20>   rohf_nel[1]  2
| 21> end
| 22>
| 23> %basis
| 24>   NewECP 38
| 25>     N_core 28
| 26>     lmax g
| 27>     s 2
| 28>       1       6.9334610000    135.2710429000  2
| 29>       2       4.1140038000     17.9440714000  2
| 30>     p 4
| 31>       1       7.2168166000     29.4380813000  2
| 32>       2       7.1736962000     58.8806749000  2
| 33>       3       3.0227988000      4.9362827000  2
| 34>       4       2.8656990000      9.7233521000  2
| 35>     d 4
| 36>       1       6.3215146000     11.9072392000  2
| 37>       2       6.3914995000     17.8595514000  2
| 38>       3       1.7697266000      2.1991802000  2
| 39>       4       1.6367717000      2.8935709000  2
| 40>     f 2
| 41>       1       4.2441984000     -5.5093333000  2
| 42>       2       4.2291645000     -7.3046417000  2
| 43>     g 1
| 44>       1       1.0000000000      0.0000000000  2
| 45>   end
| 46>   NewGTO 38
| 47>     s 11
| 48>      1     608.8140000000      0.0000311510
| 49>      2      65.1516000000      0.0006099573
| 50>      3      35.9018000000     -0.0032547804
| 51>      4      21.2915000000      0.0194593461
| 52>      5      13.2866000000     -0.0949895447
| 53>      6       8.2782700000      0.2422103258
| 54>      7       3.4513000000     -0.4235083259
| 55>      8       2.0397800000     -0.2497237537
| 56>      9       0.8361070000      0.4522175188
| 57>     10       0.4564400000      0.6255669815
| 58>     11       0.2389060000      0.2498151970
| 59>     s 11
| 60>      1     608.8140000000     -0.0000156193
| 61>      2      65.1516000000     -0.0002655283
| 62>      3      35.9018000000      0.0013050804
| 63>      4      21.2915000000     -0.0083754229
| 64>      5      13.2866000000      0.0444352108
| 65>      6       8.2782700000     -0.1194374177
| 66>      7       3.4513000000      0.2269260607
| 67>      8       2.0397800000      0.1248486420
| 68>      9       0.8361070000     -0.2620712510
| 69>     10       0.4564400000     -0.4909740225
| 70>     11       0.2389060000     -0.4406069437
| 71>     s 1
| 72>      1       0.0766210000      1.0000000000
| 73>     s 1
| 74>      1       0.0377960000      1.0000000000
| 75>     s 1
| 76>      1       0.0179690000      1.0000000000
| 77>     s 1
| 78>      1       0.0085000000      1.0000000000
| 79>     p 8
| 80>      1     128.5760000000      0.0000442379
| 81>      2       8.0241500000      0.0292704372
| 82>      3       5.0158000000     -0.0767990800
| 83>      4       2.6892900000     -0.1074780935
| 84>      5       1.1674900000      0.2156006534
| 85>      6       0.6273460000      0.4455323896
| 86>      7       0.3316900000      0.3702102537
| 87>      8       0.1707680000      0.1275389953
| 88>     p 8
| 89>      1     128.5760000000     -0.0000379861
| 90>      2       8.0241500000     -0.0231398867
| 91>      3       5.0158000000      0.0625916525
| 92>      4       2.6892900000      0.0825755245
| 93>      5       1.1674900000     -0.1929822232
| 94>      6       0.6273460000     -0.3660597122
| 95>      7       0.3316900000     -0.4602241731
| 96>      8       0.1707680000     -0.1203274108
| 97>     p 1
| 98>      1       0.0730790000      1.0000000000
| 99>     p 1
|100>      1       0.0341100000      1.0000000000
|101>     p 1
|102>      1       0.0157510000      1.0000000000
|103>     p 1
|104>      1       0.0073000000      1.0000000000
|105>   end
|106>   NewAuxGTO 38
|107>     S 1
|108>      1 1310.72 1.0
|109>     S 1
|110>      1  655.36 1.0
|111>     S 1
|112>      1  327.68 1.0
|113>     S 1
|114>      1  163.84 1.0
|115>     S 1
|116>      1   81.82 1.0
|117>     S 1
|118>      1   40.96 1.0
|119>     S 1
|120>      1   20.48 1.0
|121>     S 1
|122>      1   10.24 1.0
|123>     S 1
|124>      1    5.12 1.0
|125>     S 1
|126>      1    2.56 1.0
|127>     S 1
|128>      1    1.28 1.0
|129>     S 1
|130>      1    0.64 1.0
|131>     S 1
|132>      1    0.32 1.0
|133>     S 1
|134>      1    0.16 1.0
|135>     S 1
|136>      1    0.08 1.0
|137>     S 1
|138>      1    0.04 1.0
|139>     S 1
|140>      1    0.02 1.0
|141>     S 1
|142>      1    0.01 1.0
|143>   end
|144> end
|145>
|146> * xyz 0 1
|147> 38  0.0 0.0 0.0
|148> *
|149>
|150>
|151>                          ****END OF INPUT****

CARTESIAN COORDINATES (ANGSTROEM)
---------------------------------
  Sr     0.000000    0.000000    0.000000

 Total Charge           Charge          ....    0
 Multiplicity           Mult            ....    1
 Number of Electrons    NEL             ....   10
 Basis Dimension        Dim             ....   24

ORBITAL ENERGIES
----------------

  NO   OCC          E(Eh)            E(eV)
   0   2.0000      -1.934417       -52.6382
   1   2.0000      -1.093026       -29.7427
   2   2.0000      -1.093026       -29.7427
   3   2.0000      -1.093026       -29.7427
   4   2.0000      -0.218811        -5.9542
   5   0.0000       0.009282         0.2526
   6   0.0000       0.009282         0.2526
   7   0.0000       0.009282         0.2526
   8   0.0000       0.017821         0.4849
   9   0.0000       0.031531         0.8580

--------------------------
ATOM BASIS FOR ELEMENT Sr
--------------------------
 NewGTO Sr
 S 26
    1        608.814000000000         0.000030673996
    2         65.151600000000         0.000600617245
    3         35.901800000000        -0.003204941128
    4         21.291500000000         0.019161372190
    5         13.286600000000        -0.093535004251
    6          8.278270000000         0.238501446922
    7          3.451300000000        -0.417023296496
    8          2.039780000000        -0.245899824425
    9          0.836107000000         0.445292875937
   10          0.456440000000         0.615987901183
   11          0.238906000000         0.245989867487
   12        608.814000000000         0.000001301820
   13         65.151600000000         0.000022130957
   14         35.901800000000        -0.000108774387
   15         21.291500000000         0.000698065413
   16         13.286600000000        -0.003703536423
   17          8.278270000000         0.009954736768
   18          3.451300000000        -0.018913580380
   19          2.039780000000        -0.010405745460
   20          0.836107000000         0.021842822529
   21          0.456440000000         0.040921155598
   22          0.238906000000         0.036723216452
   23          0.076621000000        -0.040720388905
   24          0.037796000000        -0.096411939450
   25          0.017969000000        -0.032483892857
   26          0.008500000000        -0.000172810815
 S 26
    1        608.814000000000        -0.000004487064
    2         65.151600000000        -0.000087859700
    3         35.901800000000         0.000468826310
    4         21.291500000000        -0.002802970497
    5         13.286600000000         0.013682519957
    6          8.278270000000        -0.034888551439
    7          3.451300000000         0.061003146602
    8          2.039780000000         0.035970803465
    9          0.836107000000        -0.065138487033
   10          0.456440000000        -0.090108155962
   11          0.238906000000        -0.035983975176
   12        608.814000000000         0.000008902855
   13         65.151600000000         0.000151348650
   14         35.901800000000        -0.000743883633
   15         21.291500000000         0.004773912791
   16         13.286600000000        -0.025327654942
   17          8.278270000000         0.068078212034
   18          3.451300000000        -0.129345734142
   19          2.039780000000        -0.071162559321
   20          0.836107000000         0.149378164207
   21          0.456440000000         0.279850605035
   22          0.238906000000         0.251141840762
   23          0.076621000000        -0.341903961905
   24          0.037796000000        -0.638344037758
   25          0.017969000000        -0.228956510824
   26          0.008500000000         0.000292759014
 S 26
    1        608.814000000000         0.000000679235
    2         65.151600000000         0.000013299880
    3         35.901800000000        -0.000070969210
    4         21.291500000000         0.000424303407
    5         13.286600000000        -0.002071209753
    6          8.278270000000         0.005281301123
    7          3.451300000000        -0.009234432883
    8          2.039780000000        -0.005445128470
    9          0.836107000000         0.009860425570
   10          0.456440000000         0.013640242590
   11          0.238906000000         0.005447122356
   12        608.814000000000        -0.000002877653
   13         65.151600000000        -0.000048920130
   14         35.901800000000         0.000240444061
   15         21.291500000000        -0.001543062551
   16         13.286600000000         0.008186608673
   17          8.278270000000        -0.022004788140
   18          3.451300000000         0.041808170215
   19          2.039780000000         0.023001735718
   20          0.836107000000        -0.048283213644
   21          0.456440000000        -0.090455567070
   22          0.238906000000        -0.081176089001
   23          0.076621000000         0.441026491293
   24          0.037796000000        -1.138178850764
   25          0.017969000000         2.997155567833
   26          0.008500000000        -2.728641168088
 S 26
    1        608.814000000000        -0.000001197995
    2         65.151600000000        -0.000023457548
    3         35.901800000000         0.000125171330
    4         21.291500000000        -0.000748361464
    5         13.286600000000         0.003653078288
    6          8.278270000000        -0.009314849178
    7          3.451300000000         0.016287151130
    8          2.039780000000         0.009603798246
    9          0.836107000000        -0.017391240318
   10          0.456440000000        -0.024057859897
   11          0.238906000000        -0.009607314944
   12        608.814000000000        -0.000003118181
   13         65.151600000000        -0.000053009118
   14         35.901800000000         0.000260541573
   15         21.291500000000        -0.001672039407
   16         13.286600000000         0.008870886210
   17          8.278270000000        -0.023844057956
   18          3.451300000000         0.045302705361
   19          2.039780000000         0.024924335380
   20          0.836107000000        -0.052318965178
   21          0.456440000000        -0.098016293998
   22          0.238906000000        -0.087961190923
   23          0.076621000000        -1.230624655274
   24          0.037796000000         5.628706759654
   25          0.017969000000        -6.903229275452
   26          0.008500000000         2.718580227006
 S 26
    1        608.814000000000        -0.000013448784
    2         65.151600000000        -0.000263336145
    3         35.901800000000         0.001405182498
    4         21.291500000000        -0.008401160512
    5         13.286600000000         0.041009723958
    6          8.278270000000        -0.104569177925
    7          3.451300000000         0.182840749408
    8          2.039780000000         0.107812941279
    9          0.836107000000        -0.195235335356
   10          0.456440000000        -0.270075294174
   11          0.238906000000        -0.107852419987
   12        608.814000000000         0.000027522555
   13         65.151600000000         0.000467883788
   14         35.901800000000        -0.002299664333
   15         21.291500000000         0.014758218205
   16         13.286600000000        -0.078298677550
   17          8.278270000000         0.210459041095
   18          3.451300000000        -0.399863309624
   19          2.039780000000        -0.219994085466
   20          0.836107000000         0.461792169039
   21          0.456440000000         0.865138613744
   22          0.238906000000         0.776387472676
   23          0.076621000000        -6.207056976174
   24          0.037796000000         9.086501508831
   25          0.017969000000        -5.710650722350
   26          0.008500000000         1.648428398467
 S 26
    1        608.814000000000         0.000255767308
    2         65.151600000000         0.005008094018
    3         35.901800000000        -0.026723585815
    4         21.291500000000         0.159772224698
    5         13.286600000000        -0.779917824666
    6          8.278270000000         1.988683607297
    7          3.451300000000        -3.477242609246
    8          2.039780000000        -2.050373094935
    9          0.836107000000         3.712961301710
   10          0.456440000000         5.136258321218
   11          0.238906000000         2.051123896087
   12        608.814000000000        -0.000139802275
   13         65.151600000000        -0.002376640472
   14         35.901800000000         0.011681266733
   15         21.291500000000        -0.074965150726
   16         13.286600000000         0.397722278020
   17          8.278270000000        -1.069037841685
   18          3.451300000000         2.031126851403
   19          2.039780000000         1.117471604386
   20          0.836107000000        -2.345697771534
   21          0.456440000000        -4.394517391986
   22          0.238906000000        -3.943701272137
   23          0.076621000000         1.925160494756
   24          0.037796000000        -1.854852697322
   25          0.017969000000         1.003658055695
   26          0.008500000000        -0.284461169352
 P 20
    1        128.576000000000        -0.000044000655
    2          8.024150000000        -0.029113461982
    3          5.015800000000         0.076387212141
    4          2.689290000000         0.106901696331
    5          1.167490000000        -0.214444402836
    6          0.627346000000        -0.443143031921
    7          0.331690000000        -0.368224843137
    8          0.170768000000        -0.126855012979
    9        128.576000000000         0.000000000432
   10          8.024150000000         0.000000263180
   11          5.015800000000        -0.000000711882
   12          2.689290000000        -0.000000939167
   13          1.167490000000         0.000002194870
   14          0.627346000000         0.000004163355
   15          0.331690000000         0.000005234328
   16          0.170768000000         0.000001368536
   17          0.073079000000        -0.011601354178
   18          0.034110000000        -0.000353913755
   19          0.015751000000        -0.000211914545
   20          0.007300000000         0.000041812871
 P 20
    1        128.576000000000        -0.000001490066
    2          8.024150000000        -0.000985916656
    3          5.015800000000         0.002586824777
    4          2.689290000000         0.003620186534
    5          1.167490000000        -0.007262080641
    6          0.627346000000        -0.015006875398
    7          0.331690000000        -0.012469798556
    8          0.170768000000        -0.004295898246
    9        128.576000000000        -0.000002822731
   10          8.024150000000        -0.001719515272
   11          5.015800000000         0.004651159437
   12          2.689290000000         0.006136152581
   13          1.167490000000        -0.014340428040
   14          0.627346000000        -0.027201743632
   15          0.331690000000        -0.034199065215
   16          0.170768000000        -0.008941479413
   17          0.073079000000         0.025090662557
   18          0.034110000000         0.370964416827
   19          0.015751000000        -0.363574066026
   20          0.007300000000         1.094685766586
 P 20
    1        128.576000000000         0.000001749139
    2          8.024150000000         0.001157334686
    3          5.015800000000        -0.003036587343
    4          2.689290000000        -0.004249616250
    5          1.167490000000         0.008524714297
    6          0.627346000000         0.017616070599
    7          0.331690000000         0.014637880697
    8          0.170768000000         0.005042811696
    9        128.576000000000        -0.000008338045
   10          8.024150000000        -0.005079263523
   11          5.015800000000         0.013739025670
   12          2.689290000000         0.018125536002
   13          1.167490000000        -0.042360084971
   14          0.627346000000        -0.080351030557
   15          0.331690000000        -0.101020367343
   16          0.170768000000        -0.026412170310
   17          0.073079000000         0.300756880918
   18          0.034110000000        -0.469464211615
   19          0.015751000000         2.166286790698
   20          0.007300000000        -1.720844305742
 P 20
    1        128.576000000000        -0.000008157425
    2          8.024150000000        -0.005397439379
    3          5.015800000000         0.014161673630
    4          2.689290000000         0.019818853071
    5          1.167490000000        -0.039756545103
    6          0.627346000000        -0.082155727558
    7          0.331690000000        -0.068266400944
    8          0.170768000000        -0.023518063323
    9        128.576000000000        -0.000000321760
   10          8.024150000000        -0.000196005685
   11          5.015800000000         0.000530180630
   12          2.689290000000         0.000699453391
   13          1.167490000000        -0.001634649871
   14          0.627346000000        -0.003100697314
   15          0.331690000000        -0.003898314428
   16          0.170768000000        -0.001019229560
   17          0.073079000000        -0.418385591475
   18          0.034110000000         2.964713580446
   19          0.015751000000        -3.537942379595
   20          0.007300000000         1.394755873941
 P 20
    1        128.576000000000         0.000029345924
    2          8.024150000000         0.019417016562
    3          5.015800000000        -0.050945908260
    4          2.689290000000        -0.071297326628
    5          1.167490000000         0.143022170435
    6          0.627346000000         0.295551095763
    7          0.331690000000         0.245584942190
    8          0.170768000000         0.084605049360
    9        128.576000000000        -0.000050284976
   10          8.024150000000        -0.030631958491
   11          5.015800000000         0.082857142998
   12          2.689290000000         0.109311254270
   13          1.167490000000        -0.255464667013
   14          0.627346000000        -0.484579983240
   15          0.331690000000        -0.609232359243
   16          0.170768000000        -0.159286184099
   17          0.073079000000         3.049276335718
   18          0.034110000000        -4.176806615290
   19          0.015751000000         2.606056588165
   20          0.007300000000        -0.815339761549
 P 20
    1        128.576000000000        -0.001361923676
    2          8.024150000000        -0.901130058604
    3          5.015800000000         2.364363708963
    4          2.689290000000         3.308858697004
    5          1.167490000000        -6.637558165119
    6          0.627346000000       -13.716318126957
    7          0.331690000000       -11.397424142765
    8          0.170768000000        -3.926460733187
    9        128.576000000000         0.001188730911
   10          8.024150000000         0.724135896785
   11          5.015800000000        -1.958733117495
   12          2.689290000000        -2.584105197297
   13          1.167490000000         6.039154688711
   14          0.627346000000        11.455413823220
   15          0.331690000000        14.402181334364
   16          0.170768000000         3.765506662032
   17          0.073079000000        -1.795810232223
   18          0.034110000000         1.860998466544
   19          0.015751000000        -1.101385309150
   20          0.007300000000         0.356108017781
 end
  // -----------------------------------------------
  // The basis set
  // -----------------------------------------------
  BAS[ATNO] = new BFNGauss[NSH];
  // Basis function   1 L = s
  InitBFNGauss(BAS[ATNO][  0]);
  BAS[ATNO][  0].l  = 0;
  BAS[ATNO][  0].ng = 26;
  BAS[ATNO][  0].a[  0] =       608.814000000000;     BAS[ATNO][  0].d[  0] =         0.000030673996;
  BAS[ATNO][  0].a[  1] =        65.151600000000;     BAS[ATNO][  0].d[  1] =         0.000600617245;
  BAS[ATNO][  0].a[  2] =        35.901800000000;     BAS[ATNO][  0].d[  2] =        -0.003204941128;
  BAS[ATNO][  0].a[  3] =        21.291500000000;     BAS[ATNO][  0].d[  3] =         0.019161372190;
  BAS[ATNO][  0].a[  4] =        13.286600000000;     BAS[ATNO][  0].d[  4] =        -0.093535004251;
  BAS[ATNO][  0].a[  5] =         8.278270000000;     BAS[ATNO][  0].d[  5] =         0.238501446922;
  BAS[ATNO][  0].a[  6] =         3.451300000000;     BAS[ATNO][  0].d[  6] =        -0.417023296496;
  BAS[ATNO][  0].a[  7] =         2.039780000000;     BAS[ATNO][  0].d[  7] =        -0.245899824425;
  BAS[ATNO][  0].a[  8] =         0.836107000000;     BAS[ATNO][  0].d[  8] =         0.445292875937;
  BAS[ATNO][  0].a[  9] =         0.456440000000;     BAS[ATNO][  0].d[  9] =         0.615987901183;
  BAS[ATNO][  0].a[ 10] =         0.238906000000;     BAS[ATNO][  0].d[ 10] =         0.245989867487;
  BAS[ATNO][  0].a[ 11] =       608.814000000000;     BAS[ATNO][  0].d[ 11] =         0.000001301820;
  BAS[ATNO][  0].a[ 12] =        65.151600000000;     BAS[ATNO][  0].d[ 12] =         0.000022130957;
  BAS[ATNO][  0].a[ 13] =        35.901800000000;     BAS[ATNO][  0].d[ 13] =        -0.000108774387;
  BAS[ATNO][  0].a[ 14] =        21.291500000000;     BAS[ATNO][  0].d[ 14] =         0.000698065413;
  BAS[ATNO][  0].a[ 15] =        13.286600000000;     BAS[ATNO][  0].d[ 15] =        -0.003703536423;
  BAS[ATNO][  0].a[ 16] =         8.278270000000;     BAS[ATNO][  0].d[ 16] =         0.009954736768;
  BAS[ATNO][  0].a[ 17] =         3.451300000000;     BAS[ATNO][  0].d[ 17] =        -0.018913580380;
  BAS[ATNO][  0].a[ 18] =         2.039780000000;     BAS[ATNO][  0].d[ 18] =        -0.010405745460;
  BAS[ATNO][  0].a[ 19] =         0.836107000000;     BAS[ATNO][  0].d[ 19] =         0.021842822529;
  BAS[ATNO][  0].a[ 20] =         0.456440000000;     BAS[ATNO][  0].d[ 20] =         0.040921155598;
  BAS[ATNO][  0].a[ 21] =         0.238906000000;     BAS[ATNO][  0].d[ 21] =         0.036723216452;
  BAS[ATNO][  0].a[ 22] =         0.076621000000;     BAS[ATNO][  0].d[ 22] =        -0.040720388905;
  BAS[ATNO][  0].a[ 23] =         0.037796000000;     BAS[ATNO][  0].d[ 23] =        -0.096411939450;
  BAS[ATNO][  0].a[ 24] =         0.017969000000;     BAS[ATNO][  0].d[ 24] =        -0.032483892857;
  BAS[ATNO][  0].a[ 25] =         0.008500000000;     BAS[ATNO][  0].d[ 25] =        -0.000172810815;

FINAL SINGLE POINT ENERGY       -30.341254424586

DIPOLE MOMENT
-------------
                                X             Y             Z
Electronic contribution:     -0.00000       0.00000       0.00000
Nuclear contribution   :      0.00000       0.00000       0.00000
                        -----------------------------------------
Total Dipole Moment    :     -0.00000       0.00000       0.00000
                        -----------------------------------------
Magnitude (a.u.)       :      0.00000
Magnitude (Debye)      :      0.00000

Rotational constants in cm-1:     0.000000     0.000000     0.000000
Rotational constants in MHz :     0.000000     0.000000     0.000000

                             ****ORCA TERMINATED NORMALLY****
TOTAL RUN TIME: 0 days 0 hours 0 minutes 1 seconds 356 msec
