                         Program Version 4.2.0 -  RELEASE  -
|  1> #
|  2> # 40_Zr CCSD(T)/aug-cc-pVQZ-PP
|  3> #
|  4> ! CCSD(T) aug-cc-pVQZ-PP verytightscf slowconv kdiis
|  5>
|  6> *xyz 0 3
|  7>  Zr 0.0 0.0 0.0
|  8> *
|  9>
| 10> %maxcore 5000
| 11>
| 12> %pal
| 13> nprocs 24
| 14> end
| 15>
| 16> %mdci
| 17> maxiter 100
| 18> maxdiis 25
| 19> end
| 20>
| 21>
| 22>                          ****END OF INPUT****

CARTESIAN COORDINATES (ANGSTROEM)
---------------------------------
  Zr     0.000000    0.000000    0.000000

 Total Charge           Charge          ....    0
 Multiplicity           Mult            ....    3
 Number of Electrons    NEL             ....   12
 Basis Dimension        Dim             ....  135

ORBITAL ENERGIES
----------------
                 SPIN UP ORBITALS
  NO   OCC          E(Eh)            E(eV)
   0   1.0000      -2.539077       -69.0918
   1   1.0000      -1.547157       -42.1003
   2   1.0000      -1.547157       -42.1003
   3   1.0000      -1.547156       -42.1003
   4   1.0000      -0.326089        -8.8733
   5   1.0000      -0.326089        -8.8733
   6   1.0000      -0.231095        -6.2884
   7   0.0000       0.011225         0.3055
   8   0.0000       0.011225         0.3055
   9   0.0000       0.011225         0.3055
  10   0.0000       0.023143         0.6298
  11   0.0000       0.034133         0.9288

                 SPIN DOWN ORBITALS
  NO   OCC          E(Eh)            E(eV)
   0   1.0000      -2.461848       -66.9903
   1   1.0000      -1.439006       -39.1573
   2   1.0000      -1.439005       -39.1573
   3   1.0000      -1.439005       -39.1573
   4   1.0000      -0.196803        -5.3553
   5   0.0000       0.012476         0.3395
   6   0.0000       0.012476         0.3395
   7   0.0000       0.012476         0.3395
   8   0.0000       0.024986         0.6799
   9   0.0000       0.034299         0.9333

E(0)                                       ...    -46.306449397
E(0)                                       ...    -46.306449397
E(CORR)                                    ...     -0.358503433
E(TOT)                                     ...    -46.664952830
E(CCSD(T))                                 ...    -46.680182604

MULLIKEN ATOMIC CHARGES AND SPIN DENSITIES
------------------------------------------
   0 Zr:   -0.000000    2.000000
Sum of atomic charges       :   -0.0000000

LOEWDIN ATOMIC CHARGES AND SPIN DENSITIES
-----------------------------------------
   0 Zr:   -0.000000    2.000000

FINAL SINGLE POINT ENERGY       -46.680182603714

DIPOLE MOMENT
-------------
                                X             Y             Z
Electronic contribution:     -0.00000      -0.00000       0.00000
Nuclear contribution   :      0.00000       0.00000       0.00000
                        -----------------------------------------
Total Dipole Moment    :     -0.00000      -0.00000       0.00000
                        -----------------------------------------
Magnitude (a.u.)       :      0.00000
Magnitude (Debye)      :      0.00000

Rotational constants in cm-1:     0.000000     0.000000     0.000000
Rotational constants in MHz :     0.000000     0.000000     0.000000

                             ****ORCA TERMINATED NORMALLY****
TOTAL RUN TIME: 0 days 0 hours 6 minutes 7 seconds 235 msec
