                         Program Version 4.2.0 -  RELEASE  -
|  1> #
|  2> # 41_Nb CCSD(T)/aug-cc-pVQZ-PP
|  3> #
|  4> ! CCSD(T) aug-cc-pVQZ-PP tightscf
|  5>
|  6> *xyz 0 6
|  7>  Nb 0.0 0.0 0.0
|  8> *
|  9>
| 10> %maxcore 5000
| 11>
| 12> %pal
| 13> nprocs 24
| 14> end
| 15>
| 16>
| 17>                          ****END OF INPUT****

CARTESIAN COORDINATES (ANGSTROEM)
---------------------------------
  Nb     0.000000    0.000000    0.000000

 Total Charge           Charge          ....    0
 Multiplicity           Mult            ....    6
 Number of Electrons    NEL             ....   13
 Basis Dimension        Dim             ....  135

ORBITAL ENERGIES
----------------
                 SPIN UP ORBITALS
  NO   OCC          E(Eh)            E(eV)
   0   1.0000      -2.730392       -74.2977
   1   1.0000      -1.705020       -46.3960
   2   1.0000      -1.685470       -45.8640
   3   1.0000      -1.673643       -45.5422
   4   1.0000      -0.314998        -8.5715
   5   1.0000      -0.292606        -7.9622
   6   1.0000      -0.279669        -7.6102
   7   1.0000      -0.275262        -7.4903
   8   1.0000      -0.228879        -6.2281
   9   0.0000       0.011347         0.3088
  10   0.0000       0.011784         0.3207
  11   0.0000       0.012713         0.3459
  12   0.0000       0.025878         0.7042
  13   0.0000       0.040688         1.1072

                 SPIN DOWN ORBITALS
  NO   OCC          E(Eh)            E(eV)
   0   1.0000      -2.566571       -69.8399
   1   1.0000      -1.489921       -40.5428
   2   1.0000      -1.471707       -40.0472
   3   1.0000      -1.441388       -39.2222
   4   0.0000       0.008602         0.2341
   5   0.0000       0.019329         0.5260
   6   0.0000       0.019708         0.5363
   7   0.0000       0.020265         0.5514
   8   0.0000       0.044951         1.2232

E(0)                                       ...    -56.149771067
E(0)                                       ...    -56.149771067
E(CORR)                                    ...     -0.394122886
E(TOT)                                     ...    -56.543893953
E(CCSD(T))                                 ...    -56.557692906

MULLIKEN ATOMIC CHARGES AND SPIN DENSITIES
------------------------------------------
   0 Nb:   -0.000000    5.000000
Sum of atomic charges       :   -0.0000000

LOEWDIN ATOMIC CHARGES AND SPIN DENSITIES
-----------------------------------------
   0 Nb:   -0.000000    5.000000

FINAL SINGLE POINT ENERGY       -56.557692905880

DIPOLE MOMENT
-------------
                                X             Y             Z
Electronic contribution:     -0.00000       0.00000       0.00000
Nuclear contribution   :      0.00000       0.00000       0.00000
                        -----------------------------------------
Total Dipole Moment    :     -0.00000       0.00000       0.00000
                        -----------------------------------------
Magnitude (a.u.)       :      0.00000
Magnitude (Debye)      :      0.00000

Rotational constants in cm-1:     0.000000     0.000000     0.000000
Rotational constants in MHz :     0.000000     0.000000     0.000000

                             ****ORCA TERMINATED NORMALLY****
TOTAL RUN TIME: 0 days 0 hours 4 minutes 57 seconds 383 msec
