                         Program Version 4.2.0 -  RELEASE  -
|  1> #
|  2> # 42_Mo CCSD(T)/aug-cc-pVQZ-PP
|  3> #
|  4> ! CCSD(T) aug-cc-pVQZ-PP tightscf
|  5>
|  6> *xyz 0 7
|  7>  Mo 0.0 0.0 0.0
|  8> *
|  9>
| 10> %maxcore 5000
| 11>
| 12> %pal
| 13> nprocs 24
| 14> end
| 15>
| 16>
| 17>                          ****END OF INPUT****

CARTESIAN COORDINATES (ANGSTROEM)
---------------------------------
  Mo     0.000000    0.000000    0.000000

 Total Charge           Charge          ....    0
 Multiplicity           Mult            ....    7
 Number of Electrons    NEL             ....   14
 Basis Dimension        Dim             ....  135

ORBITAL ENERGIES
----------------
                 SPIN UP ORBITALS
  NO   OCC          E(Eh)            E(eV)
   0   1.0000      -3.014866       -82.0387
   1   1.0000      -1.907804       -51.9140
   2   1.0000      -1.907804       -51.9140
   3   1.0000      -1.907804       -51.9140
   4   1.0000      -0.343942        -9.3591
   5   1.0000      -0.343942        -9.3591
   6   1.0000      -0.343942        -9.3591
   7   1.0000      -0.343942        -9.3591
   8   1.0000      -0.343942        -9.3591
   9   1.0000      -0.237934        -6.4745
  10   0.0000       0.013711         0.3731
  11   0.0000       0.013711         0.3731
  12   0.0000       0.013711         0.3731
  13   0.0000       0.027543         0.7495
  14   0.0000       0.045206         1.2301

                 SPIN DOWN ORBITALS
  NO   OCC          E(Eh)            E(eV)
   0   1.0000      -2.777626       -75.5830
   1   1.0000      -1.595898       -43.4266
   2   1.0000      -1.595898       -43.4266
   3   1.0000      -1.595898       -43.4266
   4   0.0000       0.009946         0.2706
   5   0.0000       0.021091         0.5739
   6   0.0000       0.021091         0.5739
   7   0.0000       0.021091         0.5739
   8   0.0000       0.049558         1.3485

E(0)                                       ...    -67.345249414
E(0)                                       ...    -67.345249414
E(CORR)                                    ...     -0.441835322
E(TOT)                                     ...    -67.787084736
E(CCSD(T))                                 ...    -67.802401991

MULLIKEN ATOMIC CHARGES AND SPIN DENSITIES
------------------------------------------
   0 Mo:   -0.000000    6.000000
Sum of atomic charges       :   -0.0000000

LOEWDIN ATOMIC CHARGES AND SPIN DENSITIES
-----------------------------------------
   0 Mo:   -0.000000    6.000000

FINAL SINGLE POINT ENERGY       -67.802401990806

DIPOLE MOMENT
-------------
                                X             Y             Z
Electronic contribution:      0.00000      -0.00000      -0.00000
Nuclear contribution   :      0.00000       0.00000       0.00000
                        -----------------------------------------
Total Dipole Moment    :      0.00000      -0.00000      -0.00000
                        -----------------------------------------
Magnitude (a.u.)       :      0.00000
Magnitude (Debye)      :      0.00000

Rotational constants in cm-1:     0.000000     0.000000     0.000000
Rotational constants in MHz :     0.000000     0.000000     0.000000

                             ****ORCA TERMINATED NORMALLY****
TOTAL RUN TIME: 0 days 0 hours 3 minutes 30 seconds 177 msec
