                         Program Version 4.2.0 -  RELEASE  -
|  1> #
|  2> # 44_Ru CCSD(T)/aug-cc-pVQZ-PP
|  3> #
|  4> ! CCSD(T) aug-cc-pVQZ-PP tightscf slowconv
|  5>
|  6> *xyz 0 5
|  7>  Ru 0.0 0.0 0.0
|  8> *
|  9>
| 10> %maxcore 5000
| 11>
| 12> %pal
| 13> nprocs 24
| 14> end
| 15>
| 16>
| 17>                          ****END OF INPUT****

CARTESIAN COORDINATES (ANGSTROEM)
---------------------------------
  Ru     0.000000    0.000000    0.000000

 Total Charge           Charge          ....    0
 Multiplicity           Mult            ....    5
 Number of Electrons    NEL             ....   16
 Basis Dimension        Dim             ....  135

ORBITAL ENERGIES
----------------
                 SPIN UP ORBITALS
  NO   OCC          E(Eh)            E(eV)
   0   1.0000      -3.532983       -96.1374
   1   1.0000      -2.262435       -61.5640
   2   1.0000      -2.262435       -61.5640
   3   1.0000      -2.262434       -61.5640
   4   1.0000      -0.438166       -11.9231
   5   1.0000      -0.438166       -11.9231
   6   1.0000      -0.438166       -11.9231
   7   1.0000      -0.396817       -10.7979
   8   1.0000      -0.396817       -10.7979
   9   1.0000      -0.237883        -6.4731
  10   0.0000       0.016243         0.4420
  11   0.0000       0.016243         0.4420
  12   0.0000       0.016243         0.4420
  13   0.0000       0.030904         0.8409
  14   0.0000       0.051706         1.4070

                 SPIN DOWN ORBITALS
  NO   OCC          E(Eh)            E(eV)
   0   1.0000      -3.350527       -91.1725
   1   1.0000      -2.035080       -55.3773
   2   1.0000      -2.035079       -55.3773
   3   1.0000      -2.035079       -55.3773
   4   1.0000      -0.331602        -9.0233
   5   1.0000      -0.331602        -9.0233
   6   0.0000       0.006430         0.1750
   7   0.0000       0.022145         0.6026
   8   0.0000       0.022145         0.6026
   9   0.0000       0.022145         0.6026
  10   0.0000       0.061899         1.6844

E(0)                                       ...    -93.816587155
E(0)                                       ...    -93.816587155
E(CORR)                                    ...     -0.576872964
E(TOT)                                     ...    -94.393460119
E(CCSD(T))                                 ...    -94.415244421

MULLIKEN ATOMIC CHARGES AND SPIN DENSITIES
------------------------------------------
   0 Ru:    0.000000    4.000000
Sum of atomic charges       :    0.0000000

LOEWDIN ATOMIC CHARGES AND SPIN DENSITIES
-----------------------------------------
   0 Ru:   -0.000000    4.000000

FINAL SINGLE POINT ENERGY       -94.415244420845

DIPOLE MOMENT
-------------
                                X             Y             Z
Electronic contribution:      0.00000       0.00000       0.00000
Nuclear contribution   :      0.00000       0.00000       0.00000
                        -----------------------------------------
Total Dipole Moment    :      0.00000       0.00000       0.00000
                        -----------------------------------------
Magnitude (a.u.)       :      0.00000
Magnitude (Debye)      :      0.00000

Rotational constants in cm-1:     0.000000     0.000000     0.000000
Rotational constants in MHz :     0.000000     0.000000     0.000000

                             ****ORCA TERMINATED NORMALLY****
TOTAL RUN TIME: 0 days 0 hours 6 minutes 41 seconds 417 msec
