                         Program Version 4.2.0 -  RELEASE  -
|  1> #
|  2> # 45_Rh CCSD(T)/aug-cc-pVQZ-PP
|  3> #
|  4> ! CCSD(T) aug-cc-pVQZ-PP tightscf
|  5>
|  6> *xyz 0 4
|  7>  Rh 0.0 0.0 0.0
|  8> *
|  9>
| 10> %maxcore 5000
| 11>
| 12> %pal
| 13> nprocs 24
| 14> end
| 15>
| 16>
| 17>                          ****END OF INPUT****

CARTESIAN COORDINATES (ANGSTROEM)
---------------------------------
  Rh     0.000000    0.000000    0.000000

 Total Charge           Charge          ....    0
 Multiplicity           Mult            ....    4
 Number of Electrons    NEL             ....   17
 Basis Dimension        Dim             ....  135

ORBITAL ENERGIES
----------------
                 SPIN UP ORBITALS
  NO   OCC          E(Eh)            E(eV)
   0   1.0000      -3.785589      -103.0111
   1   1.0000      -2.431280       -66.1585
   2   1.0000      -2.431280       -66.1585
   3   1.0000      -2.431280       -66.1585
   4   1.0000      -0.480464       -13.0741
   5   1.0000      -0.480464       -13.0741
   6   1.0000      -0.436870       -11.8878
   7   1.0000      -0.436870       -11.8878
   8   1.0000      -0.436870       -11.8878
   9   1.0000      -0.237852        -6.4723
  10   0.0000       0.018069         0.4917
  11   0.0000       0.018069         0.4917
  12   0.0000       0.018069         0.4917
  13   0.0000       0.032642         0.8882
  14   0.0000       0.058671         1.5965

                 SPIN DOWN ORBITALS
  NO   OCC          E(Eh)            E(eV)
   0   1.0000      -3.652211       -99.3817
   1   1.0000      -2.269163       -61.7471
   2   1.0000      -2.269163       -61.7471
   3   1.0000      -2.269163       -61.7471
   4   1.0000      -0.389398       -10.5961
   5   1.0000      -0.389398       -10.5961
   6   1.0000      -0.389398       -10.5961
   7   0.0000       0.004925         0.1340
   8   0.0000       0.024456         0.6655
   9   0.0000       0.024456         0.6655
  10   0.0000       0.024456         0.6655
  11   0.0000       0.060740         1.6528

E(0)                                       ...   -109.391077750
E(0)                                       ...   -109.391077750
E(CORR)                                    ...     -0.644013676
E(TOT)                                     ...   -110.035091425
E(CCSD(T))                                 ...   -110.059409387

MULLIKEN ATOMIC CHARGES AND SPIN DENSITIES
------------------------------------------
   0 Rh:    0.000000    3.000000
Sum of atomic charges       :    0.0000000

LOEWDIN ATOMIC CHARGES AND SPIN DENSITIES
-----------------------------------------
   0 Rh:    0.000000    3.000000

FINAL SINGLE POINT ENERGY      -110.059409386994

DIPOLE MOMENT
-------------
                                X             Y             Z
Electronic contribution:     -0.00000      -0.00000      -0.00000
Nuclear contribution   :      0.00000       0.00000       0.00000
                        -----------------------------------------
Total Dipole Moment    :     -0.00000      -0.00000      -0.00000
                        -----------------------------------------
Magnitude (a.u.)       :      0.00000
Magnitude (Debye)      :      0.00000

Rotational constants in cm-1:     0.000000     0.000000     0.000000
Rotational constants in MHz :     0.000000     0.000000     0.000000

                             ****ORCA TERMINATED NORMALLY****
TOTAL RUN TIME: 0 days 0 hours 4 minutes 13 seconds 181 msec
