                         Program Version 4.2.0 -  RELEASE  -
|  1> #
|  2> # 46_Pd CCSD(T)/aug-cc-pVQZ-PP
|  3> #
|  4> ! CCSD(T) aug-cc-pVQZ-PP tightscf
|  5>
|  6> *xyz 0 1
|  7>  Pd 0.0 0.0 0.0
|  8> *
|  9>
| 10> %maxcore 5000
| 11>
| 12> %pal
| 13> nprocs 24
| 14> end
| 15>
| 16>
| 17>                          ****END OF INPUT****

CARTESIAN COORDINATES (ANGSTROEM)
---------------------------------
  Pd     0.000000    0.000000    0.000000

 Total Charge           Charge          ....    0
 Multiplicity           Mult            ....    1
 Number of Electrons    NEL             ....   18
 Basis Dimension        Dim             ....  135

ORBITAL ENERGIES
----------------

  NO   OCC          E(Eh)            E(eV)
   0   2.0000      -3.853441      -104.8575
   1   2.0000      -2.418696       -65.8161
   2   2.0000      -2.418696       -65.8161
   3   2.0000      -2.418696       -65.8161
   4   2.0000      -0.326503        -8.8846
   5   2.0000      -0.326503        -8.8846
   6   2.0000      -0.326503        -8.8846
   7   2.0000      -0.326503        -8.8846
   8   2.0000      -0.326503        -8.8846
   9   0.0000       0.008921         0.2428
  10   0.0000       0.023684         0.6445
  11   0.0000       0.023684         0.6445
  12   0.0000       0.023684         0.6445
  13   0.0000       0.069810         1.8996

E(0)                                       ...   -126.609249212
E(0)                                       ...   -126.609249212
E(CORR)                                    ...     -0.743066968
E(TOT)                                     ...   -127.352316180
E(CCSD(T))                                 ...   -127.383463491

MULLIKEN ATOMIC CHARGES
-----------------------
   0 Pd:   -0.000000
Sum of atomic charges:   -0.0000000

LOEWDIN ATOMIC CHARGES
----------------------
   0 Pd:   -0.000000

FINAL SINGLE POINT ENERGY      -127.383463491338

DIPOLE MOMENT
-------------
                                X             Y             Z
Electronic contribution:      0.00000      -0.00000      -0.00000
Nuclear contribution   :      0.00000       0.00000       0.00000
                        -----------------------------------------
Total Dipole Moment    :      0.00000      -0.00000      -0.00000
                        -----------------------------------------
Magnitude (a.u.)       :      0.00000
Magnitude (Debye)      :      0.00000

Rotational constants in cm-1:     0.000000     0.000000     0.000000
Rotational constants in MHz :     0.000000     0.000000     0.000000

                             ****ORCA TERMINATED NORMALLY****
TOTAL RUN TIME: 0 days 0 hours 2 minutes 44 seconds 428 msec
