                         Program Version 4.2.0 -  RELEASE  -
|  1> #
|  2> # 47_Ag CCSD(T)/aug-cc-pVQZ-PP
|  3> #
|  4> ! CCSD(T) aug-cc-pVQZ-PP tightscf
|  5>
|  6> *xyz 0 2
|  7>  Ag 0.0 0.0 0.0
|  8> *
|  9>
| 10> %maxcore 5000
| 11>
| 12> %pal
| 13> nprocs 24
| 14> end
| 15>
| 16>
| 17>                          ****END OF INPUT****

CARTESIAN COORDINATES (ANGSTROEM)
---------------------------------
  Ag     0.000000    0.000000    0.000000

 Total Charge           Charge          ....    0
 Multiplicity           Mult            ....    2
 Number of Electrons    NEL             ....   19
 Basis Dimension        Dim             ....  135

ORBITAL ENERGIES
----------------
                 SPIN UP ORBITALS
  NO   OCC          E(Eh)            E(eV)
   0   1.0000      -4.358482      -118.6003
   1   1.0000      -2.805136       -76.3316
   2   1.0000      -2.805136       -76.3316
   3   1.0000      -2.805136       -76.3316
   4   1.0000      -0.510061       -13.8795
   5   1.0000      -0.510061       -13.8795
   6   1.0000      -0.510061       -13.8795
   7   1.0000      -0.510061       -13.8795
   8   1.0000      -0.510061       -13.8795
   9   1.0000      -0.238609        -6.4929
  10   0.0000       0.018646         0.5074
  11   0.0000       0.018646         0.5074
  12   0.0000       0.018646         0.5074
  13   0.0000       0.035254         0.9593
  14   0.0000       0.059458         1.6179

                 SPIN DOWN ORBITALS
  NO   OCC          E(Eh)            E(eV)
   0   1.0000      -4.357922      -118.5851
   1   1.0000      -2.809199       -76.4422
   2   1.0000      -2.809199       -76.4422
   3   1.0000      -2.809199       -76.4422
   4   1.0000      -0.507631       -13.8133
   5   1.0000      -0.507631       -13.8133
   6   1.0000      -0.507631       -13.8133
   7   1.0000      -0.507631       -13.8133
   8   1.0000      -0.507631       -13.8133
   9   0.0000       0.001895         0.0516
  10   0.0000       0.023910         0.6506
  11   0.0000       0.023910         0.6506
  12   0.0000       0.023910         0.6506
  13   0.0000       0.057790         1.5726

E(0)                                       ...   -146.055763643
E(0)                                       ...   -146.055763643
E(CORR)                                    ...     -0.774171316
E(TOT)                                     ...   -146.829934959
E(CCSD(T))                                 ...   -146.858331778

MULLIKEN ATOMIC CHARGES AND SPIN DENSITIES
------------------------------------------
   0 Ag:   -0.000000    1.000000
Sum of atomic charges       :   -0.0000000

LOEWDIN ATOMIC CHARGES AND SPIN DENSITIES
-----------------------------------------
   0 Ag:   -0.000000    1.000000

FINAL SINGLE POINT ENERGY      -146.858331777765

DIPOLE MOMENT
-------------
                                X             Y             Z
Electronic contribution:      0.00000      -0.00000       0.00000
Nuclear contribution   :      0.00000       0.00000       0.00000
                        -----------------------------------------
Total Dipole Moment    :      0.00000      -0.00000       0.00000
                        -----------------------------------------
Magnitude (a.u.)       :      0.00000
Magnitude (Debye)      :      0.00000

Rotational constants in cm-1:     0.000000     0.000000     0.000000
Rotational constants in MHz :     0.000000     0.000000     0.000000

                             ****ORCA TERMINATED NORMALLY****
TOTAL RUN TIME: 0 days 0 hours 3 minutes 56 seconds 275 msec
