                         Program Version 4.2.0 -  RELEASE  -
|  1> #
|  2> # 48_Cd CCSD(T)/aug-cc-pVQZ-PP
|  3> #
|  4> ! CCSD(T) aug-cc-pVQZ-PP tightscf
|  5>
|  6> *xyz 0 1
|  7>  Cd 0.0 0.0 0.0
|  8> *
|  9>
| 10> %maxcore 5000
| 11>
| 12> %pal
| 13> nprocs 24
| 14> end
| 15>
| 16>
| 17>                          ****END OF INPUT****

CARTESIAN COORDINATES (ANGSTROEM)
---------------------------------
  Cd     0.000000    0.000000    0.000000

 Total Charge           Charge          ....    0
 Multiplicity           Mult            ....    1
 Number of Electrons    NEL             ....   20
 Basis Dimension        Dim             ....  135

ORBITAL ENERGIES
----------------

  NO   OCC          E(Eh)            E(eV)
   0   2.0000      -4.823844      -131.2635
   1   2.0000      -3.155471       -85.8647
   2   2.0000      -3.155471       -85.8647
   3   2.0000      -3.155471       -85.8647
   4   2.0000      -0.719701       -19.5841
   5   2.0000      -0.719701       -19.5841
   6   2.0000      -0.719701       -19.5841
   7   2.0000      -0.719701       -19.5841
   8   2.0000      -0.719701       -19.5841
   9   2.0000      -0.281016        -7.6468
  10   0.0000       0.019674         0.5354
  11   0.0000       0.019674         0.5354
  12   0.0000       0.019674         0.5354
  13   0.0000       0.034893         0.9495
  14   0.0000       0.059463         1.6181

E(0)                                       ...   -166.838943043
E(0)                                       ...   -166.838943043
E(CORR)                                    ...     -0.836356146
E(TOT)                                     ...   -167.675299189
E(CCSD(T))                                 ...   -167.705283281

MULLIKEN ATOMIC CHARGES
-----------------------
   0 Cd:   -0.000000
Sum of atomic charges:   -0.0000000

LOEWDIN ATOMIC CHARGES
----------------------
   0 Cd:    0.000000

FINAL SINGLE POINT ENERGY      -167.705283281202

DIPOLE MOMENT
-------------
                                X             Y             Z
Electronic contribution:      0.00000       0.00000      -0.00000
Nuclear contribution   :      0.00000       0.00000       0.00000
                        -----------------------------------------
Total Dipole Moment    :      0.00000       0.00000      -0.00000
                        -----------------------------------------
Magnitude (a.u.)       :      0.00000
Magnitude (Debye)      :      0.00000

Rotational constants in cm-1:     0.000000     0.000000     0.000000
Rotational constants in MHz :     0.000000     0.000000     0.000000

                             ****ORCA TERMINATED NORMALLY****
TOTAL RUN TIME: 0 days 0 hours 2 minutes 31 seconds 492 msec
