                         Program Version 4.2.0 -  RELEASE  -
|  1> # input to generate an atomic fitting density for In
|  2> # this file is use internally by ORCA
|  3> #
|  4> # atomic ground state (S=2): 1s2 2s2 2p6 3s2 3p6 4s2 3d10 4p6 5s2 4d10 5p1
|  5> #
|  6> ! RHF AllowRHF def2-SVP def2/J  NoMulliken NoLoewdin NoMayer NoPrintMOs
|  7>
|  8> %output print[p_atomdensfit] 2 end
|  9>
| 10> %scf
| 11>   guess hcore
| 12>   maxiter 1000
| 13>   maxdisk 500000
| 14>   SCFMode Conventional
| 15>   lshift 1.000000
| 16>   hftyp rohf
| 17>   rohf_case sahf
| 18>   rohf_numop   2
| 19>   rohf_norb[1] 3
| 20>   rohf_nel[1]  1
| 21> end
| 22>
| 23> %basis
| 24>   NewECP 49
| 25>     N_core 28
| 26>     lmax g
| 27>     s 2
| 28>       1      15.3928220000    281.1223500000  2
| 29>       2       8.0558640000     61.9014700000  2
| 30>     p 4
| 31>       1      13.9286720000     67.4621540000  2
| 32>       2      13.3472340000    134.9492500000  2
| 33>       3       7.6141320000     14.7461400000  2
| 34>       4       7.3183650000     29.6392620000  2
| 35>     d 4
| 36>       1      14.0347150000     35.4932540000  2
| 37>       2      14.5116160000     53.1787730000  2
| 38>       3       5.5505500000      9.1772810000  2
| 39>       4       5.0594150000     12.3924100000  2
| 40>     f 2
| 41>       1      12.5390560000    -13.7280780000  2
| 42>       2      12.5525610000    -18.2068660000  2
| 43>     g 1
| 44>       1       1.0000000000      0.0000000000  2
| 45>   end
| 46>   NewGTO 49
| 47>     s 10
| 48>      1    8931.8400000000      0.0000214470
| 49>      2    1352.2200000000      0.0001478714
| 50>      3     303.3930000000      0.0005395614
| 51>      4      45.1229000000      0.0132158684
| 52>      5      28.1822000000     -0.0985771940
| 53>      6      17.6048000000      0.2930078128
| 54>      7       6.9405800000     -0.7094115162
| 55>      8       4.3337700000     -0.1791592246
| 56>      9       1.9868400000      0.7612602079
| 57>     10       1.0430600000      0.6846774789
| 58>     s 10
| 59>      1    8931.8400000000     -0.0000140663
| 60>      2    1352.2200000000     -0.0000884165
| 61>      3     303.3930000000     -0.0003576848
| 62>      4      45.1229000000     -0.0066051115
| 63>      5      28.1822000000      0.0528408921
| 64>      6      17.6048000000     -0.1680857204
| 65>      7       6.9405800000      0.4682917562
| 66>      8       4.3337700000      0.0615519230
| 67>      9       1.9868400000     -0.5440144265
| 68>     10       1.0430600000     -0.7381669271
| 69>     s 1
| 70>      1       0.5292520000      1.0000000000
| 71>     s 1
| 72>      1       0.2190990000      1.0000000000
| 73>     s 1
| 74>      1       0.0980430000      1.0000000000
| 75>     s 1
| 76>      1       0.0431440000      1.0000000000
| 77>     s 1
| 78>      1       0.0162000000      1.0000000000
| 79>     p 7
| 80>      1     129.2330000000      0.0002845734
| 81>      2      29.6284000000     -0.0062942748
| 82>      3      18.5211000000      0.0478491362
| 83>      4       8.2853600000     -0.2446964355
| 84>      5       2.4993900000      0.4383971073
| 85>      6       1.3221600000      0.4958115829
| 86>      7       0.6887070000      0.2264725158
| 87>     p 7
| 88>      1     129.2330000000     -0.0001293972
| 89>      2      29.6284000000      0.0025088686
| 90>      3      18.5211000000     -0.0316520011
| 91>      4       8.2853600000      0.1904295957
| 92>      5       2.4993900000     -0.4144485566
| 93>      6       1.3221600000     -0.4433472721
| 94>      7       0.6887070000     -0.2900007670
| 95>     p 1
| 96>      1       0.3340160000      1.0000000000
| 97>     p 1
| 98>      1       0.1425610000      1.0000000000
| 99>     p 1
|100>      1       0.0614610000      1.0000000000
|101>     p 1
|102>      1       0.0264010000      1.0000000000
|103>     p 1
|104>      1       0.0090000000      1.0000000000
|105>   end
|106>   NewAuxGTO 49
|107>     S 1
|108>      1 1310.72 1.0
|109>     S 1
|110>      1  655.36 1.0
|111>     S 1
|112>      1  327.68 1.0
|113>     S 1
|114>      1  163.84 1.0
|115>     S 1
|116>      1   81.82 1.0
|117>     S 1
|118>      1   40.96 1.0
|119>     S 1
|120>      1   20.48 1.0
|121>     S 1
|122>      1   10.24 1.0
|123>     S 1
|124>      1    5.12 1.0
|125>     S 1
|126>      1    2.56 1.0
|127>     S 1
|128>      1    1.28 1.0
|129>     S 1
|130>      1    0.64 1.0
|131>     S 1
|132>      1    0.32 1.0
|133>     S 1
|134>      1    0.16 1.0
|135>     S 1
|136>      1    0.08 1.0
|137>     S 1
|138>      1    0.04 1.0
|139>     S 1
|140>      1    0.02 1.0
|141>     S 1
|142>      1    0.01 1.0
|143>   end
|144> end
|145>
|146> * xyz 0 2
|147> 49  0.0 0.0 0.0
|148> *
|149>
|150>
|151>                          ****END OF INPUT****

CARTESIAN COORDINATES (ANGSTROEM)
---------------------------------
  In     0.000000    0.000000    0.000000

 Total Charge           Charge          ....    0
 Multiplicity           Mult            ....    2
 Number of Electrons    NEL             ....   21
 Basis Dimension        Dim             ....   28

ORBITAL ENERGIES
----------------

  NO   OCC          E(Eh)            E(eV)
   0   2.0000      -9.083983      -247.1878
   1   2.0000      -7.022254      -191.0852
   2   2.0000      -7.022254      -191.0852
   3   2.0000      -7.014791      -190.8822
   4   2.0000      -2.163650       -58.8759
   5   2.0000      -1.391683       -37.8696
   6   2.0000      -1.391683       -37.8696
   7   2.0000      -1.373061       -37.3629
   8   2.0000      -0.365255        -9.9391
   9   2.0000      -0.187104        -5.0914
  10   0.3333      -0.202101        -5.4995
  11   0.3333      -0.202101        -5.4995
  12   0.3333      -0.079485        -2.1629
  13   0.0000      -0.055865        -1.5202
  14   0.0000      -0.055865        -1.5202
  15   0.0000      -0.049592        -1.3495
  16   0.0000       0.015482         0.4213
  17   0.0000       0.015482         0.4213

CleanUpVectors: The p-vectors have cracked symmetry
CleanUpVectors: The p-vectors have cracked symmetry
CleanUpVectors: The p-vectors have cracked symmetry
CleanUpVectors: The p-vectors have cracked symmetry
CleanUpVectors: The p-vectors have cracked symmetry
CleanUpVectors: The p-vectors have cracked symmetry
CleanUpVectors: The p-vectors have cracked symmetry
CleanUpVectors: The p-vectors have cracked symmetry
CleanUpVectors: The p-vectors have cracked symmetry
CleanUpVectors: The p-vectors have cracked symmetry
CleanUpVectors: The p-vectors have cracked symmetry
CleanUpVectors: The p-vectors have cracked symmetry
CleanUpVectors: The p-vectors have cracked symmetry
CleanUpVectors: The p-vectors have cracked symmetry
CleanUpVectors: The p-vectors have cracked symmetry
CleanUpVectors: The p-vectors have cracked symmetry
CleanUpVectors: The p-vectors have cracked symmetry
CleanUpVectors: The p-vectors have cracked symmetry
CleanUpVectors: The p-vectors have cracked symmetry
CleanUpVectors: The p-vectors have cracked symmetry
--------------------------
ATOM BASIS FOR ELEMENT In
--------------------------
 NewGTO In
 S 25
    1       8931.840000000000        -0.000013912986
    2       1352.220000000000        -0.000095926362
    3        303.393000000000        -0.000350021453
    4         45.122900000000        -0.008573329116
    5         28.182200000000         0.063948482381
    6         17.604800000000        -0.190078497815
    7          6.940580000000         0.460205733230
    8          4.333770000000         0.116223236357
    9          1.986840000000        -0.493840745682
   10          1.043060000000        -0.444160397749
   11       8931.840000000000        -0.000007629253
   12       1352.220000000000        -0.000047955172
   13        303.393000000000        -0.000194000397
   14         45.122900000000        -0.003582467725
   15         28.182200000000         0.028659741856
   16         17.604800000000        -0.091166011113
   17          6.940580000000         0.253991185857
   18          4.333770000000         0.033384414113
   19          1.986840000000        -0.295061502750
   20          1.043060000000        -0.400365564185
   21          0.529252000000         0.312208365142
   22          0.219099000000        -0.201480147740
   23          0.098043000000         0.123611150842
   24          0.043144000000        -0.053647116652
   25          0.016200000000         0.012698021041
 P 44
    1        129.233000000000        -0.000005816176
    2         29.628400000000         0.000128643813
    3         18.521100000000        -0.000977951475
    4          8.285360000000         0.005001161131
    5          2.499390000000        -0.008960059301
    6          1.322160000000        -0.010133509348
    7          0.688707000000        -0.004628696535
    8        129.233000000000         0.000003359381
    9         29.628400000000        -0.000074303734
   10         18.521100000000         0.000564857682
   11          8.285360000000        -0.002888634411
   12          2.499390000000         0.005175265292
   13          1.322160000000         0.005853041532
   14          0.688707000000         0.002673501561
   15        129.233000000000        -0.000242728906
   16         29.628400000000         0.005368746462
   17         18.521100000000        -0.040813261071
   18          8.285360000000         0.208715565177
   19          2.499390000000        -0.373933930975
   20          1.322160000000        -0.422906016325
   21          0.688707000000        -0.193171343243
   22        129.233000000000        -0.000000777936
   23         29.628400000000         0.000015083324
   24         18.521100000000        -0.000190291900
   25          8.285360000000         0.001144863146
   26          2.499390000000        -0.002491665629
   27          1.322160000000        -0.002665404770
   28          0.688707000000        -0.001743485246
   29        129.233000000000         0.000000449330
   30         29.628400000000        -0.000008712018
   31         18.521100000000         0.000109911222
   32          8.285360000000        -0.000661264653
   33          2.499390000000         0.001439168003
   34          1.322160000000         0.001539518471
   35          0.688707000000         0.001007024438
   36        129.233000000000        -0.000032465941
   37         29.628400000000         0.000629478697
   38         18.521100000000        -0.007941532055
   39          8.285360000000         0.047779056170
   40          2.499390000000        -0.103985731801
   41          1.322160000000        -0.111236460586
   42          0.688707000000        -0.072761604544
   43          0.334016000000         0.006079912238
   44          0.334016000000        -0.003511713230
 S 25
    1       8931.840000000000         0.000022646114
    2       1352.220000000000         0.000156138971
    3        303.393000000000         0.000569728574
    4         45.122900000000         0.013954774856
    5         28.182200000000        -0.104088699023
    6         17.604800000000         0.309390040438
    7          6.940580000000        -0.749075103449
    8          4.333770000000        -0.189176115184
    9          1.986840000000         0.803822683961
   10          1.043060000000         0.722958172548
   11       8931.840000000000        -0.000038461251
   12       1352.220000000000        -0.000241755773
   13        303.393000000000        -0.000978011631
   14         45.122900000000        -0.018060247097
   15         28.182200000000         0.144481977048
   16         17.604800000000        -0.459594004413
   17          6.940580000000         1.280442401373
   18          4.333770000000         0.168300404719
   19          1.986840000000        -1.487489645988
   20          1.043060000000        -2.018357616243
   21          0.529252000000         1.616017209730
   22          0.219099000000         0.405088327677
   23          0.098043000000         0.035979598421
   24          0.043144000000        -0.020901674199
   25          0.016200000000         0.005811137471
 P 44
    1        129.233000000000         0.000002980769
    2         29.628400000000        -0.000065929492
    3         18.521100000000         0.000501196616
    4          8.285360000000        -0.002563077104
    5          2.499390000000         0.004591998188
    6          1.322160000000         0.005193387119
    7          0.688707000000         0.002372190338
    8        129.233000000000        -0.000002409450
    9         29.628400000000         0.000053292887
   10         18.521100000000        -0.000405133030
   11          8.285360000000         0.002071816049
   12          2.499390000000        -0.003711856942
   13          1.322160000000        -0.004197978580
   14          0.688707000000        -0.001917516256
   15        129.233000000000         0.000140214422
   16         29.628400000000        -0.003101302175
   17         18.521100000000         0.023576128289
   18          8.285360000000        -0.120566326025
   19          2.499390000000         0.216006123911
   20          1.322160000000         0.244295266618
   21          0.688707000000         0.111587073673
   22        129.233000000000        -0.000003392480
   23         29.628400000000         0.000065776443
   24         18.521100000000        -0.000829838619
   25          8.285360000000         0.004992601643
   26          2.499390000000        -0.010865834888
   27          1.322160000000        -0.011623489043
   28          0.688707000000        -0.007603115999
   29        129.233000000000         0.000002742249
   30         29.628400000000        -0.000053169173
   31         18.521100000000         0.000670784724
   32          8.285360000000        -0.004035677348
   33          2.499390000000         0.008783196990
   34          1.322160000000         0.009395632736
   35          0.688707000000         0.006145838424
   36        129.233000000000        -0.000159581192
   37         29.628400000000         0.003094102822
   38         18.521100000000        -0.039035342831
   39          8.285360000000         0.234850382121
   40          2.499390000000        -0.511125392718
   41          1.322160000000        -0.546765201504
   42          0.688707000000        -0.357648141273
   43          0.334016000000         0.032480880596
   44          0.334016000000        -0.026255320059
 S 25
    1       8931.840000000000         0.000008320609
    2       1352.220000000000         0.000057368402
    3        303.393000000000         0.000209329021
    4         45.122900000000         0.005127247423
    5         28.182200000000        -0.038244150790
    6         17.604800000000         0.113675734929
    7          6.940580000000        -0.275224318085
    8          4.333770000000        -0.069506871954
    9          1.986840000000         0.295339611523
   10          1.043060000000         0.265628465193
   11       8931.840000000000        -0.000011757482
   12       1352.220000000000        -0.000073903970
   13        303.393000000000        -0.000298975040
   14         45.122900000000        -0.005520959995
   15         28.182200000000         0.044167680045
   16         17.604800000000        -0.140496422822
   17          6.940580000000         0.391427162441
   18          4.333770000000         0.051448897495
   19          1.986840000000        -0.454720845440
   20          1.043060000000        -0.617005492531
   21          0.529252000000         0.654491752976
   22          0.219099000000         0.167560954175
   23          0.098043000000        -0.304719221176
   24          0.043144000000        -1.421677107521
   25          0.016200000000         1.845015863483
 S 25
    1       8931.840000000000         0.000010298652
    2       1352.220000000000         0.000071006484
    3        303.393000000000         0.000259092412
    4         45.122900000000         0.006346138212
    5         28.182200000000        -0.047335860098
    6         17.604800000000         0.140699651425
    7          6.940580000000        -0.340652872332
    8          4.333770000000        -0.086030608569
    9          1.986840000000         0.365550136262
   10          1.043060000000         0.328775815563
   11       8931.840000000000        -0.000015423918
   12       1352.220000000000        -0.000096950075
   13        303.393000000000        -0.000392206976
   14         45.122900000000        -0.007242608039
   15         28.182200000000         0.057940864422
   16         17.604800000000        -0.184308620652
   17          6.940580000000         0.513489233008
   18          4.333770000000         0.067492646012
   19          1.986840000000        -0.596520325012
   20          1.043060000000        -0.809411577740
   21          0.529252000000         0.448638147947
   22          0.219099000000         2.688035914612
   23          0.098043000000        -6.492534109765
   24          0.043144000000         5.820838110557
   25          0.016200000000        -2.024324402822
 S 25
    1       8931.840000000000         0.000068065460
    2       1352.220000000000         0.000469293371
    3        303.393000000000         0.001712383789
    4         45.122900000000         0.041942657130
    5         28.182200000000        -0.312850379833
    6         17.604800000000         0.929906825392
    7          6.940580000000        -2.251430105642
    8          4.333770000000        -0.568590250872
    9          1.986840000000         2.415980162648
   10          1.043060000000         2.172932710351
   11       8931.840000000000        -0.000087086848
   12       1352.220000000000        -0.000547401543
   13        303.393000000000        -0.002214487242
   14         45.122900000000        -0.040893365194
   15         28.182200000000         0.327146922168
   16         17.604800000000        -1.040647193941
   17          6.940580000000         2.899273661530
   18          4.333770000000         0.381078391425
   19          1.986840000000        -3.368085552141
   20          1.043060000000        -4.570116601924
   21          0.529252000000         7.630096723241
   22          0.219099000000        -9.779759214905
   23          0.098043000000         7.924543712728
   24          0.043144000000        -3.682798370874
   25          0.016200000000         0.847725253465
 P 44
    1        129.233000000000         0.000110253690
    2         29.628400000000        -0.002438622233
    3         18.521100000000         0.018538429139
    4          8.285360000000        -0.094803958658
    5          2.499390000000         0.169850374614
    6          1.322160000000         0.192094750835
    7          0.688707000000         0.087743374689
    8        129.233000000000        -0.000089118753
    9         29.628400000000         0.001971153743
   10         18.521100000000        -0.014984729287
   11          8.285360000000         0.076630638184
   12          2.499390000000        -0.137291129892
   13          1.322160000000        -0.155271399597
   14          0.688707000000        -0.070923523595
   15        129.233000000000        -0.000003875264
   16         29.628400000000         0.000085714188
   17         18.521100000000        -0.000651600065
   18          8.285360000000         0.003332227622
   19          2.499390000000        -0.005970005029
   20          1.322160000000        -0.006751863993
   21          0.688707000000        -0.003084057891
   22        129.233000000000        -0.000125128976
   23         29.628400000000         0.002426112464
   24         18.521100000000        -0.030607945897
   25          8.285360000000         0.184148191575
   26          2.499390000000        -0.400777788338
   27          1.322160000000        -0.428723266973
   28          0.688707000000        -0.280434963914
   29        129.233000000000         0.000101142541
   30         29.628400000000        -0.001961042018
   31         18.521100000000         0.024740595865
   32          8.285360000000        -0.148848145589
   33          2.499390000000         0.323951216014
   34          1.322160000000         0.346539722786
   35          0.688707000000         0.226677351431
   36        129.233000000000         0.000004398110
   37         29.628400000000        -0.000085274487
   38         18.521100000000         0.001075826835
   39          8.285360000000        -0.006472553459
   40          2.499390000000         0.014086783249
   41          1.322160000000         0.015069028053
   42          0.688707000000         0.009856899925
   43          0.334016000000         1.203873735838
   44          0.334016000000        -0.973098739502
 P 44
    1        129.233000000000         0.000048135643
    2         29.628400000000        -0.001064677752
    3         18.521100000000         0.008093690279
    4          8.285360000000        -0.041390447532
    5          2.499390000000         0.074154952159
    6          1.322160000000         0.083866621375
    7          0.688707000000         0.038307868129
    8        129.233000000000         0.000059551572
    9         29.628400000000        -0.001317178492
   10         18.521100000000         0.010013203279
   11          8.285360000000        -0.051206674664
   12          2.499390000000         0.091741663507
   13          1.322160000000         0.103756568289
   14          0.688707000000         0.047393025620
   15        129.233000000000        -0.000000007637
   16         29.628400000000         0.000000168917
   17         18.521100000000        -0.000001284108
   18          8.285360000000         0.000006566819
   19          2.499390000000        -0.000011765085
   20          1.322160000000        -0.000013305894
   21          0.688707000000        -0.000006077751
   22        129.233000000000        -0.000045024203
   23         29.628400000000         0.000872969496
   24         18.521100000000        -0.011013423120
   25          8.285360000000         0.066260635638
   26          2.499390000000        -0.144208806926
   27          1.322160000000        -0.154264214811
   28          0.688707000000        -0.100906768647
   29        129.233000000000        -0.000055702217
   30         29.628400000000         0.001080004388
   31         18.521100000000        -0.013625384800
   32          8.285360000000         0.081975117797
   33          2.499390000000        -0.178409606569
   34          1.322160000000        -0.190849771653
   35          0.688707000000        -0.124837985128
   36        129.233000000000         0.000000007143
   37         29.628400000000        -0.000000138501
   38         18.521100000000         0.000001747339
   39          8.285360000000        -0.000010512609
   40          2.499390000000         0.000022879509
   41          1.322160000000         0.000024474854
   42          0.688707000000         0.000016009406
   43          0.334016000000         0.546619543052
   44          0.334016000000         0.676256739783
 P 44
    1        129.233000000000         0.000015132320
    2         29.628400000000        -0.000334700926
    3         18.521100000000         0.002544399582
    4          8.285360000000        -0.013011844261
    5          2.499390000000         0.023311965591
    6          1.322160000000         0.026365006447
    7          0.688707000000         0.012042779041
    8        129.233000000000        -0.000012231550
    9         29.628400000000         0.000270540871
   10         18.521100000000        -0.002056654243
   11          8.285360000000         0.010517555847
   12          2.499390000000        -0.018843208932
   13          1.322160000000        -0.021311001127
   14          0.688707000000        -0.009734254313
   15        129.233000000000        -0.000000531880
   16         29.628400000000         0.000011764273
   17         18.521100000000        -0.000089432115
   18          8.285360000000         0.000457348274
   19          2.499390000000        -0.000819383249
   20          1.322160000000        -0.000926693400
   21          0.688707000000        -0.000423286976
   22        129.233000000000        -0.000013419780
   23         29.628400000000         0.000260194692
   24         18.521100000000        -0.003282628151
   25          8.285360000000         0.019749448055
   26          2.499390000000        -0.042982448238
   27          1.322160000000        -0.045979533216
   28          0.688707000000        -0.030075971452
   29        129.233000000000         0.000010847293
   30         29.628400000000        -0.000210317012
   31         18.521100000000         0.002653369054
   32          8.285360000000        -0.015963603521
   33          2.499390000000         0.034742984215
   34          1.322160000000         0.037165546920
   35          0.688707000000         0.024310597563
   36        129.233000000000         0.000000471687
   37         29.628400000000        -0.000009145482
   38         18.521100000000         0.000115379825
   39          8.285360000000        -0.000694165700
   40          2.499390000000         0.001510773425
   41          1.322160000000         0.001616116804
   42          0.688707000000         0.001057128671
   43          0.334016000000         0.178186100753
   44          0.334016000000        -0.144028949946
 P 44
    1        129.233000000000         0.000031404185
    2         29.628400000000        -0.000694606638
    3         18.521100000000         0.005280406194
    4          8.285360000000        -0.027003550665
    5          2.499390000000         0.048379448087
    6          1.322160000000         0.054715440262
    7          0.688707000000         0.024992444382
    8        129.233000000000        -0.000025384201
    9         29.628400000000         0.000561454930
   10         18.521100000000        -0.004268185656
   11          8.285360000000         0.021827140448
   12          2.499390000000        -0.039105413259
   13          1.322160000000        -0.044226835727
   14          0.688707000000        -0.020201550545
   15        129.233000000000        -0.000001103814
   16         29.628400000000         0.000024414460
   17         18.521100000000        -0.000185598952
   18          8.285360000000         0.000949137343
   19          2.499390000000        -0.001700470482
   20          1.322160000000        -0.001923171817
   21          0.688707000000        -0.000878449747
   22        129.233000000000        -0.000030975254
   23         29.628400000000         0.000600575925
   24         18.521100000000        -0.007576893359
   25          8.285360000000         0.045585261243
   26          2.499390000000        -0.099211184349
   27          1.322160000000        -0.106128992953
   28          0.688707000000        -0.069420725680
   29        129.233000000000         0.000025037494
   30         29.628400000000        -0.000485449311
   31         18.521100000000         0.006124450727
   32          8.285360000000        -0.036846854396
   33          2.499390000000         0.080193026528
   34          1.322160000000         0.085784734888
   35          0.688707000000         0.056113210749
   36        129.233000000000         0.000001088737
   37         29.628400000000        -0.000021109411
   38         18.521100000000         0.000266317290
   39          8.285360000000        -0.001602258691
   40          2.499390000000         0.003487135491
   41          1.322160000000         0.003730286867
   42          0.688707000000         0.002440042198
   43          0.334016000000         0.342803437059
   44          0.334016000000        -0.277090181943
 P 44
    1        129.233000000000         0.000142970001
    2         29.628400000000        -0.003162250846
    3         18.521100000000         0.024039460659
    4          8.285360000000        -0.122935768580
    5          2.499390000000         0.220251207253
    6          1.322160000000         0.249096305348
    7          0.688707000000         0.113780050516
    8        129.233000000000        -0.000115563554
    9         29.628400000000         0.002556067319
   10         18.521100000000        -0.019431247787
   11          8.285360000000         0.099369757712
   12          2.499390000000        -0.178030441044
   13          1.322160000000        -0.201346115904
   14          0.688707000000        -0.091969133009
   15        129.233000000000        -0.000005025197
   16         29.628400000000         0.000111148730
   17         18.521100000000        -0.000844953691
   18          8.285360000000         0.004321021713
   19          2.499390000000        -0.007741524374
   20          1.322160000000        -0.008755389554
   21          0.688707000000        -0.003999210925
   22        129.233000000000        -0.000117161695
   23         29.628400000000         0.002271635687
   24         18.521100000000        -0.028659059813
   25          8.285360000000         0.172423005929
   26          2.499390000000        -0.375259243026
   27          1.322160000000        -0.401425361668
   28          0.688707000000        -0.262578953572
   29        129.233000000000         0.000094702537
   30         29.628400000000        -0.001836177465
   31         18.521100000000         0.023165298942
   32          8.285360000000        -0.139370604024
   33          2.499390000000         0.303324414768
   34          1.322160000000         0.324474653626
   35          0.688707000000         0.212244225566
   36        129.233000000000         0.000004118071
   37         29.628400000000        -0.000079844843
   38         18.521100000000         0.001007326193
   39          8.285360000000        -0.006060429451
   40          2.499390000000         0.013189841784
   41          1.322160000000         0.014109544553
   42          0.688707000000         0.009229285934
   43          0.334016000000         1.888898572474
   44          0.334016000000        -1.526808638829
 P 44
    1        129.233000000000        -0.007578212942
    2         29.628400000000         0.167617053283
    3         18.521100000000        -1.274226414768
    4          8.285360000000         6.516286112467
    5          2.499390000000       -11.674550862203
    6          1.322160000000       -13.203503048378
    7          0.688707000000        -6.030981638729
    8        129.233000000000         0.006125517402
    9         29.628400000000        -0.135485923218
   10         18.521100000000         1.029965261964
   11          8.285360000000        -5.267155236365
   12          2.499390000000         9.436613224888
   13          1.322160000000        10.672474937306
   14          0.688707000000         4.874880563957
   15        129.233000000000         0.000266363677
   16         29.628400000000        -0.005891507007
   17         18.521100000000         0.044787291652
   18          8.285360000000        -0.229038421449
   19          2.499390000000         0.410344275015
   20          1.322160000000         0.464084824332
   21          0.688707000000         0.211980642115
   22        129.233000000000         0.003537202684
   23         29.628400000000        -0.068582448043
   24         18.521100000000         0.865239303838
   25          8.285360000000        -5.205584641964
   26          2.499390000000        11.329368385154
   27          1.322160000000        12.119343856280
   28          0.688707000000         7.927462815346
   29        129.233000000000        -0.002859143279
   30         29.628400000000         0.055435626075
   31         18.521100000000        -0.699378396108
   32          8.285360000000         4.207706956391
   33          2.499390000000        -9.157600047733
   34          1.322160000000        -9.796142212322
   35          0.688707000000        -6.407818281498
   36        129.233000000000        -0.000124327770
   37         29.628400000000         0.002410577953
   38         18.521100000000        -0.030411961800
   39          8.285360000000         0.182969082164
   40          2.499390000000        -0.398211589573
   41          1.322160000000        -0.425978132012
   42          0.688707000000        -0.278639325835
   43          0.334016000000        -1.469314827375
   44          0.334016000000         1.187656458496
 end
  // -----------------------------------------------
  // The basis set
  // -----------------------------------------------
  BAS[ATNO] = new BFNGauss[NSH];
  // Basis function   1 L = s
  InitBFNGauss(BAS[ATNO][  0]);
  BAS[ATNO][  0].l  = 0;
  BAS[ATNO][  0].ng = 25;
  BAS[ATNO][  0].a[  0] =      8931.840000000000;     BAS[ATNO][  0].d[  0] =         0.000013912986;
  BAS[ATNO][  0].a[  1] =      1352.220000000000;     BAS[ATNO][  0].d[  1] =         0.000095926362;
  BAS[ATNO][  0].a[  2] =       303.393000000000;     BAS[ATNO][  0].d[  2] =         0.000350021453;
  BAS[ATNO][  0].a[  3] =        45.122900000000;     BAS[ATNO][  0].d[  3] =         0.008573329116;
  BAS[ATNO][  0].a[  4] =        28.182200000000;     BAS[ATNO][  0].d[  4] =        -0.063948482381;
  BAS[ATNO][  0].a[  5] =        17.604800000000;     BAS[ATNO][  0].d[  5] =         0.190078497815;
  BAS[ATNO][  0].a[  6] =         6.940580000000;     BAS[ATNO][  0].d[  6] =        -0.460205733230;
  BAS[ATNO][  0].a[  7] =         4.333770000000;     BAS[ATNO][  0].d[  7] =        -0.116223236357;
  BAS[ATNO][  0].a[  8] =         1.986840000000;     BAS[ATNO][  0].d[  8] =         0.493840745682;
  BAS[ATNO][  0].a[  9] =         1.043060000000;     BAS[ATNO][  0].d[  9] =         0.444160397749;
  BAS[ATNO][  0].a[ 10] =      8931.840000000000;     BAS[ATNO][  0].d[ 10] =         0.000007629253;
  BAS[ATNO][  0].a[ 11] =      1352.220000000000;     BAS[ATNO][  0].d[ 11] =         0.000047955172;
  BAS[ATNO][  0].a[ 12] =       303.393000000000;     BAS[ATNO][  0].d[ 12] =         0.000194000397;
  BAS[ATNO][  0].a[ 13] =        45.122900000000;     BAS[ATNO][  0].d[ 13] =         0.003582467725;
  BAS[ATNO][  0].a[ 14] =        28.182200000000;     BAS[ATNO][  0].d[ 14] =        -0.028659741856;
  BAS[ATNO][  0].a[ 15] =        17.604800000000;     BAS[ATNO][  0].d[ 15] =         0.091166011113;
  BAS[ATNO][  0].a[ 16] =         6.940580000000;     BAS[ATNO][  0].d[ 16] =        -0.253991185857;
  BAS[ATNO][  0].a[ 17] =         4.333770000000;     BAS[ATNO][  0].d[ 17] =        -0.033384414113;
  BAS[ATNO][  0].a[ 18] =         1.986840000000;     BAS[ATNO][  0].d[ 18] =         0.295061502750;
  BAS[ATNO][  0].a[ 19] =         1.043060000000;     BAS[ATNO][  0].d[ 19] =         0.400365564185;
  BAS[ATNO][  0].a[ 20] =         0.529252000000;     BAS[ATNO][  0].d[ 20] =        -0.312208365142;
  BAS[ATNO][  0].a[ 21] =         0.219099000000;     BAS[ATNO][  0].d[ 21] =         0.201480147740;
  BAS[ATNO][  0].a[ 22] =         0.098043000000;     BAS[ATNO][  0].d[ 22] =        -0.123611150842;
  BAS[ATNO][  0].a[ 23] =         0.043144000000;     BAS[ATNO][  0].d[ 23] =         0.053647116652;
  BAS[ATNO][  0].a[ 24] =         0.016200000000;     BAS[ATNO][  0].d[ 24] =        -0.012698021041;

FINAL SINGLE POINT ENERGY      -170.441372989805

DIPOLE MOMENT
-------------
                                X             Y             Z
Electronic contribution:      0.00000      -0.00000      -0.00000
Nuclear contribution   :      0.00000       0.00000       0.00000
                        -----------------------------------------
Total Dipole Moment    :      0.00000      -0.00000      -0.00000
                        -----------------------------------------
Magnitude (a.u.)       :      0.00000
Magnitude (Debye)      :      0.00000

Rotational constants in cm-1:     0.000000     0.000000     0.000000
Rotational constants in MHz :     0.000000     0.000000     0.000000

                             ****ORCA TERMINATED NORMALLY****
TOTAL RUN TIME: 0 days 0 hours 0 minutes 1 seconds 382 msec
