                         Program Version 4.2.0 -  RELEASE  -
|  1> #
|  2> # 49_In CCSD(T)/aug-cc-pVQZ-PP
|  3> #
|  4> ! CCSD(T) aug-cc-pVQZ-PP tightscf
|  5>
|  6> *xyz 0 2
|  7>  In 0.0 0.0 0.0
|  8> *
|  9>
| 10> %maxcore 5000
| 11>
| 12> %pal
| 13> nprocs 24
| 14> end
| 15>
| 16>
| 17>                          ****END OF INPUT****

CARTESIAN COORDINATES (ANGSTROEM)
---------------------------------
  In     0.000000    0.000000    0.000000

 Total Charge           Charge          ....    0
 Multiplicity           Mult            ....    2
 Number of Electrons    NEL             ....   21
 Basis Dimension        Dim             ....   92

ORBITAL ENERGIES
----------------
                 SPIN UP ORBITALS
  NO   OCC          E(Eh)            E(eV)
   0   1.0000      -5.373619      -146.2236
   1   1.0000      -3.627564       -98.7110
   2   1.0000      -3.627564       -98.7110
   3   1.0000      -3.623871       -98.6105
   4   1.0000      -1.015157       -27.6238
   5   1.0000      -1.015157       -27.6238
   6   1.0000      -1.008140       -27.4329
   7   1.0000      -1.008140       -27.4329
   8   1.0000      -1.005966       -27.3737
   9   1.0000      -0.424439       -11.5496
  10   1.0000      -0.201560        -5.4847
  11   0.0000       0.005816         0.1583
  12   0.0000       0.005816         0.1583
  13   0.0000       0.024436         0.6649
  14   0.0000       0.030257         0.8233
  15   0.0000       0.031503         0.8572

                 SPIN DOWN ORBITALS
  NO   OCC          E(Eh)            E(eV)
   0   1.0000      -5.372821      -146.2019
   1   1.0000      -3.629306       -98.7584
   2   1.0000      -3.629306       -98.7584
   3   1.0000      -3.617787       -98.4450
   4   1.0000      -1.015923       -27.6447
   5   1.0000      -1.015923       -27.6447
   6   1.0000      -1.005358       -27.3572
   7   1.0000      -1.005358       -27.3572
   8   1.0000      -1.002042       -27.2669
   9   1.0000      -0.368906       -10.0385
  10   0.0000       0.010369         0.2822
  11   0.0000       0.010369         0.2822
  12   0.0000       0.019702         0.5361
  13   0.0000       0.032912         0.8956
  14   0.0000       0.035185         0.9574

E(0)                                       ...   -189.210635736
E(0)                                       ...   -189.210635736
E(CORR)                                    ...     -0.164812837
E(TOT)                                     ...   -189.375448573
E(CCSD(T))                                 ...   -189.382594649

MULLIKEN ATOMIC CHARGES AND SPIN DENSITIES
------------------------------------------
   0 In:   -0.000000    1.000000
Sum of atomic charges       :   -0.0000000

LOEWDIN ATOMIC CHARGES AND SPIN DENSITIES
-----------------------------------------
   0 In:   -0.000000    1.000000

FINAL SINGLE POINT ENERGY      -189.382594649431

DIPOLE MOMENT
-------------
                                X             Y             Z
Electronic contribution:     -0.00000      -0.00000       0.00000
Nuclear contribution   :      0.00000       0.00000       0.00000
                        -----------------------------------------
Total Dipole Moment    :     -0.00000      -0.00000       0.00000
                        -----------------------------------------
Magnitude (a.u.)       :      0.00000
Magnitude (Debye)      :      0.00000

Rotational constants in cm-1:     0.000000     0.000000     0.000000
Rotational constants in MHz :     0.000000     0.000000     0.000000

                             ****ORCA TERMINATED NORMALLY****
TOTAL RUN TIME: 0 days 0 hours 0 minutes 21 seconds 47 msec
