                         Program Version 4.2.0 -  RELEASE  -
|  1> # input to generate an atomic fitting density for Sn
|  2> # this file is use internally by ORCA
|  3> #
|  4> # atomic ground state (S=3): 1s2 2s2 2p6 3s2 3p6 4s2 3d10 4p6 5s2 4d10 5p2
|  5> #
|  6> ! RHF AllowRHF def2-SVP def2/J  NoMulliken NoLoewdin NoMayer NoPrintMOs
|  7>
|  8> %output print[p_atomdensfit] 2 end
|  9>
| 10> %scf
| 11>   guess hcore
| 12>   maxiter 1000
| 13>   maxdisk 500000
| 14>   SCFMode Conventional
| 15>   lshift 1.000000
| 16>   hftyp rohf
| 17>   rohf_case sahf
| 18>   rohf_numop   2
| 19>   rohf_norb[1] 3
| 20>   rohf_nel[1]  2
| 21> end
| 22>
| 23> %basis
| 24>   NewECP 50
| 25>     N_core 28
| 26>     lmax g
| 27>     s 2
| 28>       1      17.4204140000    279.9886820000  2
| 29>       2       7.6311550000     62.3778100000  2
| 30>     p 4
| 31>       1      16.1310240000     66.1625230000  2
| 32>       2      15.6280770000    132.1743960000  2
| 33>       3       7.3256080000     16.3394170000  2
| 34>       4       6.9425190000     32.4889590000  2
| 35>     d 4
| 36>       1      15.5149760000     36.3874410000  2
| 37>       2      15.1881600000     54.5078410000  2
| 38>       3       5.4560240000      8.6968230000  2
| 39>       4       5.3631050000     12.8402080000  2
| 40>     f 2
| 41>       1      12.2823480000    -12.5763330000  2
| 42>       2      12.2721500000    -16.5959440000  2
| 43>     g 1
| 44>       1       1.0000000000      0.0000000000  2
| 45>   end
| 46>   NewGTO 50
| 47>     s 10
| 48>      1   11606.9000000000      0.0000329306
| 49>      2    1754.8000000000      0.0002339208
| 50>      3     397.1780000000      0.0009163792
| 51>      4      90.2990000000      0.0028059144
| 52>      5      31.4890000000     -0.0454499091
| 53>      6      19.6685000000      0.1852652984
| 54>      7       7.0675900000     -0.6324753707
| 55>      8       4.4149000000     -0.1929642461
| 56>      9       2.1635600000      0.7392670434
| 57>     10       1.1428000000      0.7173023315
| 58>     s 10
| 59>      1   11606.9000000000     -0.0000196624
| 60>      2    1754.8000000000     -0.0001429996
| 61>      3     397.1780000000     -0.0005898733
| 62>      4      90.2990000000     -0.0015408207
| 63>      5      31.4890000000      0.0243009942
| 64>      6      19.6685000000     -0.1058143400
| 65>      7       7.0675900000      0.4271344364
| 66>      8       4.4149000000      0.0507237449
| 67>      9       2.1635600000     -0.5186666916
| 68>     10       1.1428000000     -0.7576458321
| 69>     s 1
| 70>      1       0.5795400000      1.0000000000
| 71>     s 1
| 72>      1       0.2607870000      1.0000000000
| 73>     s 1
| 74>      1       0.1188950000      1.0000000000
| 75>     s 1
| 76>      1       0.0531420000      1.0000000000
| 77>     s 1
| 78>      1       0.0218000000      1.0000000000
| 79>     p 7
| 80>      1     195.4950000000      0.0002650612
| 81>      2      18.2563000000      0.0455545616
| 82>      3      11.4094000000     -0.1121290896
| 83>      4       6.9056700000     -0.1423994850
| 84>      5       2.9820600000      0.3531508462
| 85>      6       1.6084300000      0.5324554746
| 86>      7       0.8317670000      0.2863338591
| 87>     p 7
| 88>      1     195.4950000000     -0.0002202816
| 89>      2      18.2563000000     -0.0381298449
| 90>      3      11.4094000000      0.1018093413
| 91>      4       6.9056700000      0.1003096157
| 92>      5       2.9820600000     -0.3341943906
| 93>      6       1.6084300000     -0.4924018643
| 94>      7       0.8317670000     -0.3242696471
| 95>     p 1
| 96>      1       0.3937310000      1.0000000000
| 97>     p 1
| 98>      1       0.1818010000      1.0000000000
| 99>     p 1
|100>      1       0.0818500000      1.0000000000
|101>     p 1
|102>      1       0.0359930000      1.0000000000
|103>     p 1
|104>      1       0.0145000000      1.0000000000
|105>   end
|106>   NewAuxGTO 50
|107>     S 1
|108>      1 1310.72 1.0
|109>     S 1
|110>      1  655.36 1.0
|111>     S 1
|112>      1  327.68 1.0
|113>     S 1
|114>      1  163.84 1.0
|115>     S 1
|116>      1   81.82 1.0
|117>     S 1
|118>      1   40.96 1.0
|119>     S 1
|120>      1   20.48 1.0
|121>     S 1
|122>      1   10.24 1.0
|123>     S 1
|124>      1    5.12 1.0
|125>     S 1
|126>      1    2.56 1.0
|127>     S 1
|128>      1    1.28 1.0
|129>     S 1
|130>      1    0.64 1.0
|131>     S 1
|132>      1    0.32 1.0
|133>     S 1
|134>      1    0.16 1.0
|135>     S 1
|136>      1    0.08 1.0
|137>     S 1
|138>      1    0.04 1.0
|139>     S 1
|140>      1    0.02 1.0
|141>     S 1
|142>      1    0.01 1.0
|143>   end
|144> end
|145>
|146> * xyz 0 3
|147> 50  0.0 0.0 0.0
|148> *
|149>
|150>
|151>                          ****END OF INPUT****

CARTESIAN COORDINATES (ANGSTROEM)
---------------------------------
  Sn     0.000000    0.000000    0.000000

 Total Charge           Charge          ....    0
 Multiplicity           Mult            ....    3
 Number of Electrons    NEL             ....   22
 Basis Dimension        Dim             ....   28

ORBITAL ENERGIES
----------------

  NO   OCC          E(Eh)            E(eV)
   0   2.0000      -9.842750      -267.8349
   1   2.0000      -7.712869      -209.8778
   2   2.0000      -7.712869      -209.8778
   3   2.0000      -7.705539      -209.6784
   4   2.0000      -2.470416       -67.2234
   5   2.0000      -1.650007       -44.8990
   6   2.0000      -1.650007       -44.8990
   7   2.0000      -1.633146       -44.4402
   8   2.0000      -0.451460       -12.2848
   9   2.0000      -0.241367        -6.5679
  10   0.6667      -0.272337        -7.4107
  11   0.6667      -0.272337        -7.4107
  12   0.6667      -0.082051        -2.2327
  13   0.0000      -0.019206        -0.5226
  14   0.0000      -0.019206        -0.5226
  15   0.0000      -0.012155        -0.3308
  16   0.0000       0.111235         3.0268
  17   0.0000       0.111235         3.0268

CleanUpVectors: The p-vectors have cracked symmetry
CleanUpVectors: The p-vectors have cracked symmetry
CleanUpVectors: The p-vectors have cracked symmetry
CleanUpVectors: The p-vectors have cracked symmetry
CleanUpVectors: The p-vectors have cracked symmetry
CleanUpVectors: The p-vectors have cracked symmetry
CleanUpVectors: The p-vectors have cracked symmetry
CleanUpVectors: The p-vectors have cracked symmetry
CleanUpVectors: The p-vectors have cracked symmetry
CleanUpVectors: The p-vectors have cracked symmetry
CleanUpVectors: The p-vectors have cracked symmetry
CleanUpVectors: The p-vectors have cracked symmetry
CleanUpVectors: The p-vectors have cracked symmetry
CleanUpVectors: The p-vectors have cracked symmetry
CleanUpVectors: The p-vectors have cracked symmetry
CleanUpVectors: The p-vectors have cracked symmetry
CleanUpVectors: The p-vectors have cracked symmetry
CleanUpVectors: The p-vectors have cracked symmetry
CleanUpVectors: The p-vectors have cracked symmetry
CleanUpVectors: The p-vectors have cracked symmetry
--------------------------
ATOM BASIS FOR ELEMENT Sn
--------------------------
 NewGTO Sn
 S 25
    1      11606.900000000000        -0.000021076943
    2       1754.800000000000        -0.000149718964
    3        397.178000000000        -0.000586520498
    4         90.299000000000        -0.001795900990
    5         31.489000000000         0.029089817121
    6         19.668500000000        -0.118577435162
    7          7.067590000000         0.404810333658
    8          4.414900000000         0.123505079354
    9          2.163560000000        -0.473161410491
   10          1.142800000000        -0.459103088594
   11      11606.900000000000        -0.000011077401
   12       1754.800000000000        -0.000080563102
   13        397.178000000000        -0.000332322766
   14         90.299000000000        -0.000868067425
   15         31.489000000000         0.013690691893
   16         19.668500000000        -0.059613673207
   17          7.067590000000         0.240638959774
   18          4.414900000000         0.028576738770
   19          2.163560000000        -0.292206393350
   20          1.142800000000        -0.426842439702
   21          0.579540000000         0.353397494132
   22          0.260787000000        -0.246430934098
   23          0.118895000000         0.145264612166
   24          0.053142000000        -0.063925061082
   25          0.021800000000         0.015995573906
 P 44
    1        195.495000000000         0.000007645940
    2         18.256300000000         0.001314064266
    3         11.409400000000        -0.003234469276
    4          6.905670000000        -0.004107647362
    5          2.982060000000         0.010186969018
    6          1.608430000000         0.015359180027
    7          0.831767000000         0.008259570048
    8        195.495000000000        -0.000003472302
    9         18.256300000000        -0.000596764743
   10         11.409400000000         0.001468891039
   11          6.905670000000         0.001865433209
   12          2.982060000000        -0.004626275975
   13          1.608430000000        -0.006975166551
   14          0.831767000000        -0.003750973465
   15        195.495000000000        -0.000189283806
   16         18.256300000000        -0.032531131745
   17         11.409400000000         0.080072907259
   18          6.905670000000         0.101689408135
   19          2.982060000000        -0.252189820295
   20          1.608430000000        -0.380233693051
   21          0.831767000000        -0.204474901442
   22        195.495000000000         0.000003537059
   23         18.256300000000         0.000612250375
   24         11.409400000000        -0.001634751140
   25          6.905670000000        -0.001610670067
   26          2.982060000000         0.005366154559
   27          1.608430000000         0.007906489706
   28          0.831767000000         0.005206793095
   29        195.495000000000        -0.000001606308
   30         18.256300000000        -0.000278045334
   31         11.409400000000         0.000742400405
   32          6.905670000000         0.000731464307
   33          2.982060000000        -0.002436967450
   34          1.608430000000        -0.003590626742
   35          0.831767000000        -0.002364595569
   36        195.495000000000        -0.000087563842
   37         18.256300000000        -0.015156943330
   38         11.409400000000         0.040470094242
   39          6.905670000000         0.039873940337
   40          2.982060000000        -0.132845162439
   41          1.608430000000        -0.195734002390
   42          0.831767000000        -0.128899991008
   43          0.393731000000        -0.011302235353
   44          0.393731000000         0.005132759291
 S 25
    1      11606.900000000000         0.000034165318
    2       1754.800000000000         0.000242691558
    3        397.178000000000         0.000950738437
    4         90.299000000000         0.002911120931
    5         31.489000000000        -0.047154033525
    6         19.668500000000         0.192211739579
    7          7.067590000000        -0.656189757569
    8          4.414900000000        -0.200199355949
    9          2.163560000000         0.766985537240
   10          1.142800000000         0.744197268092
   11      11606.900000000000        -0.000054869024
   12       1754.800000000000        -0.000399048363
   13        397.178000000000        -0.001646074360
   14         90.299000000000        -0.004299746145
   15         31.489000000000         0.067813280364
   16         19.668500000000        -0.295280820445
   17          7.067590000000         1.191942479822
   18          4.414900000000         0.141547440641
   19          2.163560000000        -1.447368345660
   20          1.142800000000        -2.114252972791
   21          0.579540000000         1.728031350130
   22          0.260787000000         0.284521697488
   23          0.118895000000         0.127338551628
   24          0.053142000000        -0.058296428797
   25          0.021800000000         0.015227513435
 P 44
    1        195.495000000000        -0.000000044428
    2         18.256300000000        -0.000007635641
    3         11.409400000000         0.000018794549
    4          6.905670000000         0.000023868330
    5          2.982060000000        -0.000059193479
    6          1.608430000000        -0.000089247674
    7          0.831767000000        -0.000047993930
    8        195.495000000000         0.000003326869
    9         18.256300000000         0.000571769981
   10         11.409400000000        -0.001407368334
   11          6.905670000000        -0.001787301821
   12          2.982060000000         0.004432510064
   13          1.608430000000         0.006683020232
   14          0.831767000000         0.003593868529
   15        195.495000000000         0.000176228122
   16         18.256300000000         0.030287325411
   17         11.409400000000        -0.074549948578
   18          6.905670000000        -0.094675470229
   19          2.982060000000         0.234795248211
   20          1.608430000000         0.354007406935
   21          0.831767000000         0.190371424116
   22        195.495000000000         0.000000081285
   23         18.256300000000         0.000014070016
   24         11.409400000000        -0.000037567923
   25          6.905670000000        -0.000037014520
   26          2.982060000000         0.000123318636
   27          1.608430000000         0.000181697623
   28          0.831767000000         0.000119656379
   29        195.495000000000        -0.000006086725
   30         18.256300000000        -0.001053587145
   31         11.409400000000         0.002813151050
   32          6.905670000000         0.002771711291
   33          2.982060000000        -0.009234312774
   34          1.608430000000        -0.013605832275
   35          0.831767000000        -0.008960076616
   36        195.495000000000        -0.000322420925
   37         18.256300000000        -0.055809744729
   38         11.409400000000         0.149015905097
   39          6.905670000000         0.146820792499
   40          2.982060000000        -0.489152360262
   41          1.608430000000        -0.720716866873
   42          0.831767000000        -0.474625749869
   43          0.393731000000        -0.000402231565
   44          0.393731000000         0.030119795340
 S 25
    1      11606.900000000000         0.000013555724
    2       1754.800000000000         0.000096292376
    3        397.178000000000         0.000377223106
    4         90.299000000000         0.001155041217
    5         31.489000000000        -0.018709237286
    6         19.668500000000         0.076263572299
    7          7.067590000000        -0.260355455539
    8          4.414900000000        -0.079432807226
    9          2.163560000000         0.304315735863
   10          1.142800000000         0.295274067464
   11      11606.900000000000        -0.000017776711
   12       1754.800000000000        -0.000129285469
   13        397.178000000000        -0.000533302513
   14         90.299000000000        -0.001393050935
   15         31.489000000000         0.021970449052
   16         19.668500000000        -0.095666397302
   17          7.067590000000         0.386170841251
   18          4.414900000000         0.045859171189
   19          2.163560000000        -0.468924852588
   20          1.142800000000        -0.684985108712
   21          0.579540000000         0.765671531613
   22          0.260787000000         0.033356510853
   23          0.118895000000        -0.046723678483
   24          0.053142000000        -1.880709742301
   25          0.021800000000         2.101839551276
 S 25
    1      11606.900000000000         0.000016815435
    2       1754.800000000000         0.000119447565
    3        397.178000000000         0.000467933008
    4         90.299000000000         0.001432791105
    5         31.489000000000        -0.023208201033
    6         19.668500000000         0.094602483807
    7          7.067590000000        -0.322962484241
    8          4.414900000000        -0.098533816773
    9          2.163560000000         0.377493783813
   10          1.142800000000         0.366277887907
   11      11606.900000000000        -0.000023504405
   12       1754.800000000000        -0.000170941520
   13        397.178000000000        -0.000705133709
   14         90.299000000000        -0.001841894887
   15         31.489000000000         0.029049374119
   16         19.668500000000        -0.126490312477
   17          7.067590000000         0.510595901557
   18          4.414900000000         0.060635092960
   19          2.163560000000        -0.620013430051
   20          1.142800000000        -0.905688756829
   21          0.579540000000         0.437608027401
   22          0.260787000000         3.110703323242
   23          0.118895000000        -7.249440906663
   24          0.053142000000         6.547386251162
   25          0.021800000000        -2.334289724459
 S 25
    1      11606.900000000000         0.000109367978
    2       1754.800000000000         0.000776889732
    3        397.178000000000         0.003043447146
    4         90.299000000000         0.009318906598
    5         31.489000000000        -0.150946678121
    6         19.668500000000         0.615296750167
    7          7.067590000000        -2.100555492654
    8          4.414900000000        -0.640866231016
    9          2.163560000000         2.455228330604
   10          1.142800000000         2.382279883339
   11      11606.900000000000        -0.000129293369
   12       1754.800000000000        -0.000940317562
   13        397.178000000000        -0.003878809613
   14         90.299000000000        -0.010131921794
   15         31.489000000000         0.159795213514
   16         19.668500000000        -0.695799723828
   17          7.067590000000         2.808693253530
   18          4.414900000000         0.333542388423
   19          2.163560000000        -3.410578762522
   20          1.142800000000        -4.982025694580
   21          0.579540000000         8.956829141808
   22          0.260787000000       -11.651031896709
   23          0.118895000000         9.154607725309
   24          0.053142000000        -4.350722654372
   25          0.021800000000         1.066362744078
 P 44
    1        195.495000000000        -0.000002373214
    2         18.256300000000        -0.000407870755
    3         11.409400000000         0.001003942850
    4          6.905670000000         0.001274967498
    5          2.982060000000        -0.003161920500
    6          1.608430000000        -0.004767316569
    7          0.831767000000        -0.002563677558
    8        195.495000000000         0.000178475443
    9         18.256300000000         0.030673559757
   10         11.409400000000        -0.075500635053
   11          6.905670000000        -0.095882804249
   12          2.982060000000         0.237789437628
   13          1.608430000000         0.358521830627
   14          0.831767000000         0.192799105713
   15        195.495000000000        -0.000003369892
   16         18.256300000000        -0.000579164215
   17         11.409400000000         0.001425568678
   18          6.905670000000         0.001810415534
   19          2.982060000000        -0.004489832092
   20          1.608430000000        -0.006769446267
   21          0.831767000000        -0.003640345092
   22        195.495000000000         0.000004325375
   23         18.256300000000         0.000748704763
   24         11.409400000000        -0.001999093859
   25          6.905670000000        -0.001969645753
   26          2.982060000000         0.006562128243
   27          1.608430000000         0.009668636791
   28          0.831767000000         0.006367249329
   29        195.495000000000        -0.000325286016
   30         18.256300000000        -0.056305680242
   31         11.409400000000         0.150340087455
   32          6.905670000000         0.148125468688
   33          2.982060000000        -0.493499056846
   34          1.608430000000        -0.727121287659
   35          0.831767000000        -0.478843360358
   36        195.495000000000         0.000006141903
   37         18.256300000000         0.001063138265
   38         11.409400000000        -0.002838653206
   39          6.905670000000        -0.002796837781
   40          2.982060000000         0.009318024909
   41          1.608430000000         0.013729173697
   42          0.831767000000         0.009041302709
   43          0.393731000000        -0.021476764140
   44          0.393731000000         1.615141072420
 P 44
    1        195.495000000000         0.000098846790
    2         18.256300000000         0.016988235787
    3         11.409400000000        -0.041815250676
    4          6.905670000000        -0.053103705583
    5          2.982060000000         0.131697235864
    6          1.608430000000         0.198563630754
    7          0.831767000000         0.106779802975
    8        195.495000000000         0.000001314265
    9         18.256300000000         0.000225875282
   10         11.409400000000        -0.000555974833
   11          6.905670000000        -0.000706065929
   12          2.982060000000         0.001751044116
   13          1.608430000000         0.002640098519
   14          0.831767000000         0.001419742370
   15        195.495000000000        -0.000000006084
   16         18.256300000000        -0.000001045621
   17         11.409400000000         0.000002573716
   18          6.905670000000         0.000003268517
   19          2.982060000000        -0.000008105924
   20          1.608430000000        -0.000012221530
   21          0.831767000000        -0.000006572264
   22        195.495000000000        -0.000155657439
   23         18.256300000000        -0.026943666612
   24         11.409400000000         0.071941466250
   25          6.905670000000         0.070881716160
   26          2.982060000000        -0.236151557071
   27          1.608430000000        -0.347945597621
   28          0.831767000000        -0.229138442258
   29        195.495000000000        -0.000002069619
   30         18.256300000000        -0.000358242514
   31         11.409400000000         0.000956532461
   32          6.905670000000         0.000942442043
   33          2.982060000000        -0.003139866921
   34          1.608430000000        -0.004626278505
   35          0.831767000000        -0.003046620671
   36        195.495000000000         0.000000009581
   37         18.256300000000         0.000001658374
   38         11.409400000000        -0.000004427975
   39          6.905670000000        -0.000004362748
   40          2.982060000000         0.000014535055
   41          1.608430000000         0.000021415944
   42          0.831767000000         0.000014103400
   43          0.393731000000         1.000777200318
   44          0.393731000000         0.013306315934
 P 44
    1        195.495000000000        -0.000000399202
    2         18.256300000000        -0.000068608652
    3         11.409400000000         0.000168874981
    4          6.905670000000         0.000214464511
    5          2.982060000000        -0.000531872172
    6          1.608430000000        -0.000801918650
    7          0.831767000000        -0.000431240681
    8        195.495000000000         0.000030021666
    9         18.256300000000         0.005159653082
   10         11.409400000000        -0.012700093744
   11          6.905670000000        -0.016128614038
   12          2.982060000000         0.039998976790
   13          1.608430000000         0.060307583571
   14          0.831767000000         0.032431074448
   15        195.495000000000        -0.000000566855
   16         18.256300000000        -0.000097422225
   17         11.409400000000         0.000239797398
   18          6.905670000000         0.000304533160
   19          2.982060000000        -0.000755242501
   20          1.608430000000        -0.001138700385
   21          0.831767000000        -0.000612348809
   22        195.495000000000         0.000000609401
   23         18.256300000000         0.000105484800
   24         11.409400000000        -0.000281651762
   25          6.905670000000        -0.000277502827
   26          2.982060000000         0.000924536371
   27          1.608430000000         0.001362211473
   28          0.831767000000         0.000897079937
   29        195.495000000000        -0.000045829454
   30         18.256300000000        -0.007932891189
   31         11.409400000000         0.021181371932
   32          6.905670000000         0.020869354927
   33          2.982060000000        -0.069528941004
   34          1.608430000000        -0.102443910299
   35          0.831767000000        -0.067464104116
   36        195.495000000000         0.000000865331
   37         18.256300000000         0.000149785246
   38         11.409400000000        -0.000399937038
   39          6.905670000000        -0.000394045675
   40          2.982060000000         0.001312813865
   41          1.608430000000         0.001934299356
   42          0.831767000000         0.001273826553
   43          0.393731000000        -0.004435819287
   44          0.393731000000         0.333591870482
 P 44
    1        195.495000000000        -0.000000790572
    2         18.256300000000        -0.000135871189
    3         11.409400000000         0.000334436601
    4          6.905670000000         0.000424721184
    5          2.982060000000        -0.001053308904
    6          1.608430000000        -0.001588103493
    7          0.831767000000        -0.000854020333
    8        195.495000000000         0.000059454301
    9         18.256300000000         0.010218072726
   10         11.409400000000        -0.025151009076
   11          6.905670000000        -0.031940781401
   12          2.982060000000         0.079213165553
   13          1.608430000000         0.119431920136
   14          0.831767000000         0.064225844645
   15        195.495000000000        -0.000001122589
   16         18.256300000000        -0.000192933005
   17         11.409400000000         0.000474889923
   18          6.905670000000         0.000603091318
   19          2.982060000000        -0.001495666991
   20          1.608430000000        -0.002255059237
   21          0.831767000000        -0.001212683209
   22        195.495000000000         0.000001255619
   23         18.256300000000         0.000217342530
   24         11.409400000000        -0.000580319692
   25          6.905670000000        -0.000571771161
   26          2.982060000000         0.001904929187
   27          1.608430000000         0.002806721804
   28          0.831767000000         0.001848357520
   29        195.495000000000        -0.000094427723
   30         18.256300000000        -0.016345052964
   31         11.409400000000         0.043642429706
   32          6.905670000000         0.042999544994
   33          2.982060000000        -0.143258516496
   34          1.608430000000        -0.211077033558
   35          0.831767000000        -0.139004094308
   36        195.495000000000         0.000001782941
   37         18.256300000000         0.000308619862
   38         11.409400000000        -0.000824036523
   39          6.905670000000        -0.000811897866
   40          2.982060000000         0.002704942201
   41          1.608430000000         0.003985460618
   42          0.831767000000         0.002624612135
   43          0.393731000000        -0.006875803982
   44          0.393731000000         0.517088763754
 P 44
    1        195.495000000000        -0.000002933057
    2         18.256300000000        -0.000504087852
    3         11.409400000000         0.001240773918
    4          6.905670000000         0.001575733537
    5          2.982060000000        -0.003907820536
    6          1.608430000000        -0.005891931056
    7          0.831767000000        -0.003168451518
    8        195.495000000000         0.000220577969
    9         18.256300000000         0.037909481522
   10         11.409400000000        -0.093311306287
   11          6.905670000000        -0.118501648478
   12          2.982060000000         0.293884190916
   13          1.608430000000         0.443097469637
   14          0.831767000000         0.238280597141
   15        195.495000000000        -0.000004164853
   16         18.256300000000        -0.000715789601
   17         11.409400000000         0.001761861678
   18          6.905670000000         0.002237494271
   19          2.982060000000        -0.005548987730
   20          1.608430000000        -0.008366365046
   21          0.831767000000        -0.004499105943
   22        195.495000000000         0.000004214695
   23         18.256300000000         0.000729546407
   24         11.409400000000        -0.001947939712
   25          6.905670000000        -0.001919245145
   26          2.982060000000         0.006394212130
   27          1.608430000000         0.009421229267
   28          0.831767000000         0.006204319909
   29        195.495000000000        -0.000316962380
   30         18.256300000000        -0.054864892965
   31         11.409400000000         0.146493085087
   32          6.905670000000         0.144335135461
   33          2.982060000000        -0.480871074035
   34          1.608430000000        -0.708515223483
   35          0.831767000000        -0.466590397277
   36        195.495000000000         0.000005984740
   37         18.256300000000         0.001035933974
   38         11.409400000000        -0.002766015855
   39          6.905670000000        -0.002725270431
   40          2.982060000000         0.009079589077
   41          1.608430000000         0.013377862449
   42          0.831767000000         0.008809947829
   43          0.393731000000        -0.039734902043
   44          0.393731000000         2.988228202750
 P 44
    1        195.495000000000         0.000122717747
    2         18.256300000000         0.021090801606
    3         11.409400000000        -0.051913404498
    4          6.905670000000        -0.065927959385
    5          2.982060000000         0.163501396407
    6          1.608430000000         0.246515659125
    7          0.831767000000         0.132566540064
    8        195.495000000000        -0.009228872193
    9         18.256300000000        -1.586113798626
   10         11.409400000000         3.904098513856
   11          6.905670000000         4.958049866860
   12          2.982060000000       -12.295967966341
   13          1.608430000000       -18.538977124457
   14          0.831767000000        -9.969541336391
   15        195.495000000000         0.000174255382
   16         18.256300000000         0.029948281848
   17         11.409400000000        -0.073715418625
   18          6.905670000000        -0.093615650375
   19          2.982060000000         0.232166894054
   20          1.608430000000         0.350044563365
   21          0.831767000000         0.188240360869
   22        195.495000000000        -0.000103207619
   23         18.256300000000        -0.017864817188
   24         11.409400000000         0.047700306023
   25          6.905670000000         0.046997645843
   26          2.982060000000        -0.156578703872
   27          1.608430000000        -0.230702991627
   28          0.831767000000        -0.151928705197
   29        195.495000000000         0.007761631447
   30         18.256300000000         1.343506689811
   31         11.409400000000        -3.587256425525
   32          6.905670000000        -3.534413530890
   33          2.982060000000        11.775353417930
   34          1.608430000000        17.349800412180
   35          0.831767000000        11.425654663008
   36        195.495000000000        -0.000146551607
   37         18.256300000000        -0.025367484379
   38         11.409400000000         0.067732949921
   39          6.905670000000         0.066735194335
   40          2.982060000000        -0.222336886117
   41          1.608430000000        -0.327591067673
   42          0.831767000000        -0.215734032726
   43          0.393731000000         0.010649679027
   44          0.393731000000        -0.800899044269
 end
  // -----------------------------------------------
  // The basis set
  // -----------------------------------------------
  BAS[ATNO] = new BFNGauss[NSH];
  // Basis function   1 L = s
  InitBFNGauss(BAS[ATNO][  0]);
  BAS[ATNO][  0].l  = 0;
  BAS[ATNO][  0].ng = 25;
  BAS[ATNO][  0].a[  0] =     11606.900000000000;     BAS[ATNO][  0].d[  0] =         0.000021076943;
  BAS[ATNO][  0].a[  1] =      1754.800000000000;     BAS[ATNO][  0].d[  1] =         0.000149718964;
  BAS[ATNO][  0].a[  2] =       397.178000000000;     BAS[ATNO][  0].d[  2] =         0.000586520498;
  BAS[ATNO][  0].a[  3] =        90.299000000000;     BAS[ATNO][  0].d[  3] =         0.001795900990;
  BAS[ATNO][  0].a[  4] =        31.489000000000;     BAS[ATNO][  0].d[  4] =        -0.029089817121;
  BAS[ATNO][  0].a[  5] =        19.668500000000;     BAS[ATNO][  0].d[  5] =         0.118577435162;
  BAS[ATNO][  0].a[  6] =         7.067590000000;     BAS[ATNO][  0].d[  6] =        -0.404810333658;
  BAS[ATNO][  0].a[  7] =         4.414900000000;     BAS[ATNO][  0].d[  7] =        -0.123505079354;
  BAS[ATNO][  0].a[  8] =         2.163560000000;     BAS[ATNO][  0].d[  8] =         0.473161410491;
  BAS[ATNO][  0].a[  9] =         1.142800000000;     BAS[ATNO][  0].d[  9] =         0.459103088594;
  BAS[ATNO][  0].a[ 10] =     11606.900000000000;     BAS[ATNO][  0].d[ 10] =         0.000011077401;
  BAS[ATNO][  0].a[ 11] =      1754.800000000000;     BAS[ATNO][  0].d[ 11] =         0.000080563102;
  BAS[ATNO][  0].a[ 12] =       397.178000000000;     BAS[ATNO][  0].d[ 12] =         0.000332322766;
  BAS[ATNO][  0].a[ 13] =        90.299000000000;     BAS[ATNO][  0].d[ 13] =         0.000868067425;
  BAS[ATNO][  0].a[ 14] =        31.489000000000;     BAS[ATNO][  0].d[ 14] =        -0.013690691893;
  BAS[ATNO][  0].a[ 15] =        19.668500000000;     BAS[ATNO][  0].d[ 15] =         0.059613673207;
  BAS[ATNO][  0].a[ 16] =         7.067590000000;     BAS[ATNO][  0].d[ 16] =        -0.240638959774;
  BAS[ATNO][  0].a[ 17] =         4.414900000000;     BAS[ATNO][  0].d[ 17] =        -0.028576738770;
  BAS[ATNO][  0].a[ 18] =         2.163560000000;     BAS[ATNO][  0].d[ 18] =         0.292206393350;
  BAS[ATNO][  0].a[ 19] =         1.142800000000;     BAS[ATNO][  0].d[ 19] =         0.426842439702;
  BAS[ATNO][  0].a[ 20] =         0.579540000000;     BAS[ATNO][  0].d[ 20] =        -0.353397494132;
  BAS[ATNO][  0].a[ 21] =         0.260787000000;     BAS[ATNO][  0].d[ 21] =         0.246430934098;
  BAS[ATNO][  0].a[ 22] =         0.118895000000;     BAS[ATNO][  0].d[ 22] =        -0.145264612166;
  BAS[ATNO][  0].a[ 23] =         0.053142000000;     BAS[ATNO][  0].d[ 23] =         0.063925061082;
  BAS[ATNO][  0].a[ 24] =         0.021800000000;     BAS[ATNO][  0].d[ 24] =        -0.015995573906;

FINAL SINGLE POINT ENERGY      -190.395497789444

DIPOLE MOMENT
-------------
                                X             Y             Z
Electronic contribution:     -0.00000      -0.00000       0.00000
Nuclear contribution   :      0.00000       0.00000       0.00000
                        -----------------------------------------
Total Dipole Moment    :     -0.00000      -0.00000       0.00000
                        -----------------------------------------
Magnitude (a.u.)       :      0.00000
Magnitude (Debye)      :      0.00000

Rotational constants in cm-1:     0.000000     0.000000     0.000000
Rotational constants in MHz :     0.000000     0.000000     0.000000

                             ****ORCA TERMINATED NORMALLY****
TOTAL RUN TIME: 0 days 0 hours 0 minutes 1 seconds 261 msec
