                         Program Version 4.2.0 -  RELEASE  -
|  1> #
|  2> # 50_Sn CCSD(T)/aug-cc-pVQZ-PP
|  3> #
|  4> ! CCSD(T) aug-cc-pVQZ-PP tightscf
|  5>
|  6> *xyz 0 3
|  7>  Sn 0.0 0.0 0.0
|  8> *
|  9>
| 10> %maxcore 5000
| 11>
| 12> %pal
| 13> nprocs 24
| 14> end
| 15>
| 16>
| 17>                          ****END OF INPUT****

CARTESIAN COORDINATES (ANGSTROEM)
---------------------------------
  Sn     0.000000    0.000000    0.000000

 Total Charge           Charge          ....    0
 Multiplicity           Mult            ....    3
 Number of Electrons    NEL             ....   22
 Basis Dimension        Dim             ....   92

ORBITAL ENERGIES
----------------
                 SPIN UP ORBITALS
  NO   OCC          E(Eh)            E(eV)
   0   1.0000      -5.859696      -159.4504
   1   1.0000      -4.048023      -110.1523
   2   1.0000      -4.044398      -110.0537
   3   1.0000      -4.044398      -110.0537
   4   1.0000      -1.315210       -35.7887
   5   1.0000      -1.312282       -35.7090
   6   1.0000      -1.312282       -35.7090
   7   1.0000      -1.303951       -35.4823
   8   1.0000      -1.303951       -35.4823
   9   1.0000      -0.573881       -15.6161
  10   1.0000      -0.267000        -7.2655
  11   1.0000      -0.267000        -7.2655
  12   0.0000      -0.018140        -0.4936
  13   0.0000       0.036418         0.9910
  14   0.0000       0.036418         0.9910
  15   0.0000       0.037670         1.0250
  16   0.0000       0.039502         1.0749

                 SPIN DOWN ORBITALS
  NO   OCC          E(Eh)            E(eV)
   0   1.0000      -5.854226      -159.3016
   1   1.0000      -4.050250      -110.2129
   2   1.0000      -4.034781      -109.7920
   3   1.0000      -4.034781      -109.7920
   4   1.0000      -1.312819       -35.7236
   5   1.0000      -1.308165       -35.5970
   6   1.0000      -1.308165       -35.5970
   7   1.0000      -1.294748       -35.2319
   8   1.0000      -1.294748       -35.2319
   9   1.0000      -0.441799       -12.0220
  10   0.0000      -0.000192        -0.0052
  11   0.0000       0.022394         0.6094
  12   0.0000       0.022394         0.6094
  13   0.0000       0.043286         1.1779
  14   0.0000       0.043359         1.1799

E(0)                                       ...   -213.340624458
E(0)                                       ...   -213.340624458
E(CORR)                                    ...     -0.175639325
E(TOT)                                     ...   -213.516263783
E(CCSD(T))                                 ...   -213.522995558

MULLIKEN ATOMIC CHARGES AND SPIN DENSITIES
------------------------------------------
   0 Sn:   -0.000000    2.000000
Sum of atomic charges       :   -0.0000000

LOEWDIN ATOMIC CHARGES AND SPIN DENSITIES
-----------------------------------------
   0 Sn:   -0.000000    2.000000

FINAL SINGLE POINT ENERGY      -213.522995558258

DIPOLE MOMENT
-------------
                                X             Y             Z
Electronic contribution:      0.00000      -0.00000       0.00000
Nuclear contribution   :      0.00000       0.00000       0.00000
                        -----------------------------------------
Total Dipole Moment    :      0.00000      -0.00000       0.00000
                        -----------------------------------------
Magnitude (a.u.)       :      0.00000
Magnitude (Debye)      :      0.00000

Rotational constants in cm-1:     0.000000     0.000000     0.000000
Rotational constants in MHz :     0.000000     0.000000     0.000000

                             ****ORCA TERMINATED NORMALLY****
TOTAL RUN TIME: 0 days 0 hours 0 minutes 20 seconds 136 msec
