                         Program Version 4.2.0 -  RELEASE  -
|  1> #
|  2> # 51_Sb CCSD(T)/aug-cc-pVQZ-PP
|  3> #
|  4> ! CCSD(T) aug-cc-pVQZ-PP tightscf
|  5>
|  6> *xyz 0 4
|  7>  Sb 0.0 0.0 0.0
|  8> *
|  9>
| 10> %maxcore 5000
| 11>
| 12> %pal
| 13> nprocs 24
| 14> end
| 15>
| 16>
| 17>                          ****END OF INPUT****

CARTESIAN COORDINATES (ANGSTROEM)
---------------------------------
  Sb     0.000000    0.000000    0.000000

 Total Charge           Charge          ....    0
 Multiplicity           Mult            ....    4
 Number of Electrons    NEL             ....   23
 Basis Dimension        Dim             ....   92

ORBITAL ENERGIES
----------------
                 SPIN UP ORBITALS
  NO   OCC          E(Eh)            E(eV)
   0   1.0000      -6.525191      -177.5595
   1   1.0000      -4.592262      -124.9618
   2   1.0000      -4.592262      -124.9618
   3   1.0000      -4.592262      -124.9618
   4   1.0000      -1.619459       -44.0677
   5   1.0000      -1.619459       -44.0677
   6   1.0000      -1.619459       -44.0677
   7   1.0000      -1.619459       -44.0677
   8   1.0000      -1.619459       -44.0677
   9   1.0000      -0.731581       -19.9073
  10   1.0000      -0.334291        -9.0965
  11   1.0000      -0.334291        -9.0965
  12   1.0000      -0.334291        -9.0965
  13   0.0000       0.043377         1.1803
  14   0.0000       0.046866         1.2753
  15   0.0000       0.046866         1.2753
  16   0.0000       0.046866         1.2753
  17   0.0000       0.106645         2.9020

                 SPIN DOWN ORBITALS
  NO   OCC          E(Eh)            E(eV)
   0   1.0000      -6.512483      -177.2137
   1   1.0000      -4.579467      -124.6136
   2   1.0000      -4.579467      -124.6136
   3   1.0000      -4.579467      -124.6136
   4   1.0000      -1.607619       -43.7455
   5   1.0000      -1.607619       -43.7455
   6   1.0000      -1.607619       -43.7455
   7   1.0000      -1.607619       -43.7455
   8   1.0000      -1.607619       -43.7455
   9   1.0000      -0.507575       -13.8118
  10   0.0000       0.016205         0.4409
  11   0.0000       0.016205         0.4409
  12   0.0000       0.016205         0.4409
  13   0.0000       0.052038         1.4160
  14   0.0000       0.066543         1.8107

E(0)                                       ...   -239.277990558
E(0)                                       ...   -239.277990558
E(CORR)                                    ...     -0.193000081
E(TOT)                                     ...   -239.470990640
E(CCSD(T))                                 ...   -239.478013669

MULLIKEN ATOMIC CHARGES AND SPIN DENSITIES
------------------------------------------
   0 Sb:   -0.000000    3.000000
Sum of atomic charges       :   -0.0000000

LOEWDIN ATOMIC CHARGES AND SPIN DENSITIES
-----------------------------------------
   0 Sb:   -0.000000    3.000000

FINAL SINGLE POINT ENERGY      -239.478013669387

DIPOLE MOMENT
-------------
                                X             Y             Z
Electronic contribution:      0.00000       0.00000      -0.00000
Nuclear contribution   :      0.00000       0.00000       0.00000
                        -----------------------------------------
Total Dipole Moment    :      0.00000       0.00000      -0.00000
                        -----------------------------------------
Magnitude (a.u.)       :      0.00000
Magnitude (Debye)      :      0.00000

Rotational constants in cm-1:     0.000000     0.000000     0.000000
Rotational constants in MHz :     0.000000     0.000000     0.000000

                             ****ORCA TERMINATED NORMALLY****
TOTAL RUN TIME: 0 days 0 hours 0 minutes 17 seconds 587 msec
