                         Program Version 4.2.0 -  RELEASE  -
|  1> # input to generate an atomic fitting density for Sb
|  2> # this file is use internally by ORCA
|  3> #
|  4> # atomic ground state (S=4): 1s2 2s2 2p6 3s2 3p6 4s2 3d10 4p6 5s2 4d10 5p3
|  5> #
|  6> ! RHF AllowRHF def2-SVP def2/J  NoMulliken NoLoewdin NoMayer NoPrintMOs
|  7>
|  8> %output print[p_atomdensfit] 2 end
|  9>
| 10> %scf
| 11>   guess hcore
| 12>   maxiter 1000
| 13>   maxdisk 500000
| 14>   SCFMode Conventional
| 15>   lshift 1.000000
| 16>   hftyp rohf
| 17>   rohf_case sahf
| 18>   rohf_numop   2
| 19>   rohf_norb[1] 3
| 20>   rohf_nel[1]  3
| 21> end
| 22>
| 23> %basis
| 24>   NewECP 51
| 25>     N_core 28
| 26>     lmax g
| 27>     s 2
| 28>       1      16.3308650000    281.0715810000  2
| 29>       2       8.5565420000     61.7166040000  2
| 30>     p 4
| 31>       1      14.4703370000     67.4573800000  2
| 32>       2      13.8161940000    134.9335030000  2
| 33>       3       8.4249240000     14.7163440000  2
| 34>       4       8.0927280000     29.5185120000  2
| 35>     d 4
| 36>       1      14.8863310000     35.4478150000  2
| 37>       2      15.1463190000     53.1434660000  2
| 38>       3       5.9082670000      9.1792230000  2
| 39>       4       5.5943220000     13.2402530000  2
| 40>     f 2
| 41>       1      14.4449780000    -15.3668010000  2
| 42>       2      14.4492950000    -20.2961380000  2
| 43>     g 1
| 44>       1       1.0000000000      0.0000000000  2
| 45>   end
| 46>   NewGTO 51
| 47>     s 10
| 48>      1   12338.8000000000      0.0000417739
| 49>      2    1854.7000000000      0.0003056089
| 50>      3     418.4430000000      0.0012059459
| 51>      4      99.3430000000      0.0031033593
| 52>      5      28.5958000000     -0.0666293331
| 53>      6      17.8648000000      0.3081746817
| 54>      7       8.4571400000     -0.6021209612
| 55>      8       5.2841200000     -0.3330521245
| 56>      9       2.3201200000      0.7483998850
| 57>     10       1.2105100000      0.7171684157
| 58>     s 10
| 59>      1   12338.8000000000     -0.0000254074
| 60>      2    1854.7000000000     -0.0001842040
| 61>      3     418.4430000000     -0.0007622234
| 62>      4      99.3430000000     -0.0017229425
| 63>      5      28.5958000000      0.0346239994
| 64>      6      17.8648000000     -0.1715113878
| 65>      7       8.4571400000      0.3869014377
| 66>      8       5.2841200000      0.1487812499
| 67>      9       2.3201200000     -0.5176322840
| 68>     10       1.2105100000     -0.7657947655
| 69>     s 1
| 70>      1       0.5704940000      1.0000000000
| 71>     s 1
| 72>      1       0.3039500000      1.0000000000
| 73>     s 1
| 74>      1       0.1393180000      1.0000000000
| 75>     s 1
| 76>      1       0.0631980000      1.0000000000
| 77>     s 1
| 78>      1       0.0260000000      1.0000000000
| 79>     p 7
| 80>      1     162.8930000000      0.0004035625
| 81>      2      30.3996000000     -0.0051634476
| 82>      3      19.0004000000      0.0588996771
| 83>      4       9.3225600000     -0.2747281280
| 84>      5       3.0166800000      0.3716832104
| 85>      6       1.8621900000      0.4356677749
| 86>      7       1.1033100000      0.3507463881
| 87>     p 7
| 88>      1     162.8930000000     -0.0002500883
| 89>      2      30.3996000000      0.0013364936
| 90>      3      19.0004000000     -0.0368624836
| 91>      4       9.3225600000      0.2025715558
| 92>      5       3.0166800000     -0.3596431683
| 93>      6       1.8621900000     -0.3179268196
| 94>      7       1.1033100000     -0.4593558098
| 95>     p 1
| 96>      1       0.5872790000      1.0000000000
| 97>     p 1
| 98>      1       0.2512180000      1.0000000000
| 99>     p 1
|100>      1       0.1118480000      1.0000000000
|101>     p 1
|102>      1       0.0485120000      1.0000000000
|103>     p 1
|104>      1       0.0189000000      1.0000000000
|105>   end
|106>   NewAuxGTO 51
|107>     S 1
|108>      1 1310.72 1.0
|109>     S 1
|110>      1  655.36 1.0
|111>     S 1
|112>      1  327.68 1.0
|113>     S 1
|114>      1  163.84 1.0
|115>     S 1
|116>      1   81.82 1.0
|117>     S 1
|118>      1   40.96 1.0
|119>     S 1
|120>      1   20.48 1.0
|121>     S 1
|122>      1   10.24 1.0
|123>     S 1
|124>      1    5.12 1.0
|125>     S 1
|126>      1    2.56 1.0
|127>     S 1
|128>      1    1.28 1.0
|129>     S 1
|130>      1    0.64 1.0
|131>     S 1
|132>      1    0.32 1.0
|133>     S 1
|134>      1    0.16 1.0
|135>     S 1
|136>      1    0.08 1.0
|137>     S 1
|138>      1    0.04 1.0
|139>     S 1
|140>      1    0.02 1.0
|141>     S 1
|142>      1    0.01 1.0
|143>   end
|144> end
|145>
|146> * xyz 0 4
|147> 51  0.0 0.0 0.0
|148> *
|149>
|150>
|151>                          ****END OF INPUT****

CARTESIAN COORDINATES (ANGSTROEM)
---------------------------------
  Sb     0.000000    0.000000    0.000000

 Total Charge           Charge          ....    0
 Multiplicity           Mult            ....    4
 Number of Electrons    NEL             ....   23
 Basis Dimension        Dim             ....   28

ORBITAL ENERGIES
----------------

  NO   OCC          E(Eh)            E(eV)
   0   2.0000     -10.711383      -291.4716
   1   2.0000      -8.470343      -230.4898
   2   2.0000      -8.470343      -230.4898
   3   2.0000      -8.463307      -230.2983
   4   2.0000      -2.730906       -74.3117
   5   2.0000      -1.909411       -51.9577
   6   2.0000      -1.909411       -51.9577
   7   2.0000      -1.896308       -51.6012
   8   2.0000      -0.530877       -14.4459
   9   2.0000      -0.303511        -8.2590
  10   1.0000      -0.352687        -9.5971
  11   1.0000      -0.352687        -9.5971
  12   1.0000      -0.080447        -2.1891
  13   0.0000       0.027230         0.7410
  14   0.0000       0.027230         0.7410
  15   0.0000       0.034384         0.9356
  16   0.0000       0.233394         6.3510
  17   0.0000       0.233394         6.3510

CleanUpVectors: The p-vectors have cracked symmetry
CleanUpVectors: The p-vectors have cracked symmetry
CleanUpVectors: The p-vectors have cracked symmetry
CleanUpVectors: The p-vectors have cracked symmetry
CleanUpVectors: The p-vectors have cracked symmetry
CleanUpVectors: The p-vectors have cracked symmetry
CleanUpVectors: The p-vectors have cracked symmetry
CleanUpVectors: The p-vectors have cracked symmetry
CleanUpVectors: The p-vectors have cracked symmetry
CleanUpVectors: The p-vectors have cracked symmetry
CleanUpVectors: The p-vectors have cracked symmetry
CleanUpVectors: The p-vectors have cracked symmetry
CleanUpVectors: The p-vectors have cracked symmetry
CleanUpVectors: The p-vectors have cracked symmetry
CleanUpVectors: The p-vectors have cracked symmetry
CleanUpVectors: The p-vectors have cracked symmetry
CleanUpVectors: The p-vectors have cracked symmetry
CleanUpVectors: The p-vectors have cracked symmetry
CleanUpVectors: The p-vectors have cracked symmetry
CleanUpVectors: The p-vectors have cracked symmetry
--------------------------
ATOM BASIS FOR ELEMENT Sb
--------------------------
 NewGTO Sb
 S 25
    1      12338.799999999999        -0.000029440636
    2       1854.700000000000        -0.000215381383
    3        418.443000000000        -0.000849904228
    4         99.343000000000        -0.002187128122
    5         28.595800000000         0.046957788022
    6         17.864800000000        -0.217189647619
    7          8.457140000000         0.424351665315
    8          5.284120000000         0.234722311255
    9          2.320120000000        -0.527443417496
   10          1.210510000000        -0.505432680681
   11      12338.799999999999        -0.000013028360
   12       1854.700000000000        -0.000094455787
   13        418.443000000000        -0.000390851506
   14         99.343000000000        -0.000883487269
   15         28.595800000000         0.017754430394
   16         17.864800000000        -0.087947292317
   17          8.457140000000         0.198394603856
   18          5.284120000000         0.076291774232
   19          2.320120000000        -0.265430525505
   20          1.210510000000        -0.392682823925
   21          0.570494000000         0.464362502768
   22          0.303950000000        -0.373699959890
   23          0.139318000000         0.188431930101
   24          0.063198000000        -0.078780413228
   25          0.026000000000         0.018891776711
 P 44
    1        162.893000000000        -0.000004480843
    2         30.399600000000         0.000057330888
    3         19.000400000000        -0.000653976002
    4          9.322560000000         0.003050366515
    5          3.016680000000        -0.004126880009
    6          1.862190000000        -0.004837314628
    7          1.103310000000        -0.003894413890
    8        162.893000000000        -0.000003497679
    9         30.399600000000         0.000044751636
   10         19.000400000000        -0.000510483905
   11          9.322560000000         0.002381070569
   12          3.016680000000        -0.003221380933
   13          1.862190000000        -0.003775935592
   14          1.103310000000        -0.003039921350
   15        162.893000000000        -0.000289562735
   16         30.399600000000         0.003704858630
   17         19.000400000000        -0.042261487650
   18          9.322560000000         0.197121953130
   19          3.016680000000        -0.266688820373
   20          1.862190000000        -0.312598798417
   21          1.103310000000        -0.251666305809
   22        162.893000000000        -0.000001567258
   23         30.399600000000         0.000008375561
   24         19.000400000000        -0.000231010446
   25          9.322560000000         0.001269478909
   26          3.016680000000        -0.002253817991
   27          1.862190000000        -0.001992389260
   28          1.103310000000        -0.002878698888
   29        162.893000000000        -0.000001223378
   30         30.399600000000         0.000006537838
   31         19.000400000000        -0.000180323306
   32          9.322560000000         0.000990936287
   33          3.016680000000        -0.001759296681
   34          1.862190000000        -0.001555229316
   35          1.103310000000        -0.002247069381
   36        162.893000000000        -0.000101279925
   37         30.399600000000         0.000541248715
   38         19.000400000000        -0.014928445515
   39          9.322560000000         0.082036752229
   40          3.016680000000        -0.145647089356
   41          1.862190000000        -0.128752941761
   42          1.103310000000        -0.186028381944
   43          0.587279000000         0.003623706077
   44          0.587279000000         0.002828610872
 S 25
    1      12338.799999999999         0.000038090961
    2       1854.700000000000         0.000278665304
    3        418.443000000000         0.001099625308
    4         99.343000000000         0.002829755817
    5         28.595800000000        -0.060755047909
    6         17.864800000000         0.281004876978
    7          8.457140000000        -0.549035779626
    8          5.284120000000        -0.303689033623
    9          2.320120000000         0.682418219612
   10          1.210510000000         0.653940230634
   11      12338.799999999999        -0.000068455243
   12       1854.700000000000        -0.000496301452
   13        418.443000000000        -0.002053661051
   14         99.343000000000        -0.004642129729
   15         28.595800000000         0.093287557165
   16         17.864800000000        -0.462103704687
   17          8.457140000000         1.042429835144
   18          5.284120000000         0.400861818265
   19          2.320120000000        -1.394658390734
   20          1.210510000000        -2.063283393052
   21          0.570494000000         2.079327840315
   22          0.303950000000        -0.212459822654
   23          0.139318000000         0.367293000527
   24          0.063198000000        -0.149576637674
   25          0.026000000000         0.035946565074
 P 44
    1        162.893000000000         0.000004498141
    2         30.399600000000        -0.000057552217
    3         19.000400000000         0.000656500703
    4          9.322560000000        -0.003062142578
    5          3.016680000000         0.004142811996
    6          1.862190000000         0.004855989277
    7          1.103310000000         0.003909448432
    8        162.893000000000        -0.000000232337
    9         30.399600000000         0.000002972674
   10         19.000400000000        -0.000033909425
   11          9.322560000000         0.000158165090
   12          3.016680000000        -0.000213983580
   13          1.862190000000        -0.000250820450
   14          1.103310000000        -0.000201929938
   15        162.893000000000         0.000303706875
   16         30.399600000000        -0.003885828184
   17         19.000400000000         0.044325815426
   18          9.322560000000        -0.206750680031
   19          3.016680000000         0.279715648579
   20          1.862190000000         0.327868170558
   21          1.103310000000         0.263959336039
   22        162.893000000000        -0.000006587438
   23         30.399600000000         0.000035203838
   24         19.000400000000        -0.000970974281
   25          9.322560000000         0.005335825250
   26          3.016680000000        -0.009473161673
   27          1.862190000000        -0.008374334417
   28          1.103310000000        -0.012099637183
   29        162.893000000000         0.000000340253
   30         30.399600000000        -0.000001818341
   31         19.000400000000         0.000050152542
   32          9.322560000000        -0.000275604828
   33          3.016680000000         0.000489305585
   34          1.862190000000         0.000432549211
   35          1.103310000000         0.000624967699
   36        162.893000000000        -0.000444772623
   37         30.399600000000         0.002376903532
   38         19.000400000000        -0.065558538760
   39          9.322560000000         0.360265882698
   40          3.016680000000        -0.639611829866
   41          1.862190000000        -0.565420874833
   42          1.103310000000        -0.816947007376
   43          0.587279000000         0.020870573579
   44          0.587279000000        -0.001078002105
 S 25
    1      12338.799999999999         0.000015344285
    2       1854.700000000000         0.000112255499
    3        418.443000000000         0.000442965040
    4         99.343000000000         0.001139918197
    5         28.595800000000        -0.024474120428
    6         17.864800000000         0.113197955342
    7          8.457140000000        -0.221169569481
    8          5.284120000000        -0.122335875575
    9          2.320120000000         0.274900378879
   10          1.210510000000         0.263428513482
   11      12338.799999999999        -0.000021716700
   12       1854.700000000000        -0.000157446373
   13        418.443000000000        -0.000651502191
   14         99.343000000000        -0.001472666430
   15         28.595800000000         0.029594488269
   16         17.864800000000        -0.146597500062
   17          8.457140000000         0.330699811043
   18          5.284120000000         0.127169161017
   19          2.320120000000        -0.442440585194
   20          1.210510000000        -0.654554776932
   21          0.570494000000         0.938475335193
   22          0.303950000000        -0.284875244280
   23          0.139318000000         0.314026922125
   24          0.063198000000        -2.211731541979
   25          0.026000000000         2.219011732289
 S 25
    1      12338.799999999999         0.000019272114
    2       1854.700000000000         0.000140990656
    3        418.443000000000         0.000556355210
    4         99.343000000000         0.001431714405
    5         28.595800000000        -0.030739004653
    6         17.864800000000         0.142174362760
    7          8.457140000000        -0.277784545735
    8          5.284120000000        -0.153651407395
    9          2.320120000000         0.345269365260
   10          1.210510000000         0.330860932285
   11      12338.799999999999        -0.000029696193
   12       1854.700000000000        -0.000215297811
   13        418.443000000000        -0.000890887438
   14         99.343000000000        -0.002013776839
   15         28.595800000000         0.040468563551
   16         17.864800000000        -0.200462673786
   17          8.457140000000         0.452210769720
   18          5.284120000000         0.173895666910
   19          2.320120000000        -0.605009107671
   20          1.210510000000        -0.895061652944
   21          0.570494000000         0.243333150787
   22          0.303950000000         3.733433597866
   23          0.139318000000        -7.955721092838
   24          0.063198000000         6.856685900543
   25          0.026000000000        -2.334341201944
 S 25
    1      12338.799999999999         0.000128117676
    2       1854.700000000000         0.000937281459
    3        418.443000000000         0.003698553060
    4         99.343000000000         0.009517789342
    5         28.595800000000        -0.204347577943
    6         17.864800000000         0.945150534439
    7          8.457140000000        -1.846663538794
    8          5.284120000000        -1.021447938976
    9          2.320120000000         2.295290928442
   10          1.210510000000         2.199506162032
   11      12338.799999999999        -0.000161503089
   12       1854.700000000000        -0.001170899622
   13        418.443000000000        -0.004845101576
   14         99.343000000000        -0.010951948500
   15         28.595800000000         0.220088748341
   16         17.864800000000        -1.090218557107
   17          8.457140000000         2.459353472458
   18          5.284120000000         0.945733584639
   19          2.320120000000        -3.290348990894
   20          1.210510000000        -4.867803094551
   21          0.570494000000        11.876386180481
   22          0.303950000000       -15.634378693586
   23          0.139318000000        10.691796089384
   24          0.063198000000        -4.867418104229
   25          0.026000000000         1.146702628475
 P 44
    1        162.893000000000         0.000307005294
    2         30.399600000000        -0.003928030350
    3         19.000400000000         0.044807217420
    4          9.322560000000        -0.208996102674
    5          3.016680000000         0.282753509691
    6          1.862190000000         0.331428993739
    7          1.103310000000         0.266826075195
    8        162.893000000000        -0.000015864341
    9         30.399600000000         0.000202978957
   10         19.000400000000        -0.002315390017
   11          9.322560000000         0.010799766593
   12          3.016680000000        -0.014611142834
   13          1.862190000000        -0.017126423549
   14          1.103310000000        -0.013788100812
   15        162.893000000000        -0.000004559130
   16         30.399600000000         0.000058332544
   17         19.000400000000        -0.000665401933
   18          9.322560000000         0.003103660944
   19          3.016680000000        -0.004198982726
   20          1.862190000000        -0.004921829692
   21          1.103310000000        -0.003962455079
   22        162.893000000000        -0.000448141360
   23         30.399600000000         0.002394906359
   24         19.000400000000        -0.066055083537
   25          9.322560000000         0.362994560697
   26          3.016680000000        -0.644456292836
   27          1.862190000000        -0.569703410525
   28          1.103310000000        -0.823134618893
   29        162.893000000000         0.000023157475
   30         30.399600000000        -0.000123755560
   31         19.000400000000         0.003413362619
   32          9.322560000000        -0.018757558059
   33          3.016680000000         0.033301948949
   34          1.862190000000         0.029439132032
   35          1.103310000000         0.042535059959
   36        162.893000000000         0.000006655047
   37         30.399600000000        -0.000035565148
   38         19.000400000000         0.000980939742
   39          9.322560000000        -0.005390588755
   40          3.016680000000         0.009570388159
   41          1.862190000000         0.008460283242
   42          1.103310000000         0.012223820137
   43          0.587279000000         1.424883122026
   44          0.587279000000        -0.073630105744
 P 44
    1        162.893000000000         0.000010032982
    2         30.399600000000        -0.000128368654
    3         19.000400000000         0.001464306964
    4          9.322560000000        -0.006830025748
    5          3.016680000000         0.009240429496
    6          1.862190000000         0.010831152026
    7          1.103310000000         0.008719918413
    8        162.893000000000         0.000194157113
    9         30.399600000000        -0.002484175508
   10         19.000400000000         0.028337100832
   11          9.322560000000        -0.132173876800
   12          3.016680000000         0.178819734323
   13          1.862190000000         0.209603214729
   14          1.103310000000         0.168746863403
   15        162.893000000000         0.000000000825
   16         30.399600000000        -0.000000010558
   17         19.000400000000         0.000000120432
   18          9.322560000000        -0.000000561735
   19          3.016680000000         0.000000759979
   20          1.862190000000         0.000000890807
   21          1.103310000000         0.000000717169
   22        162.893000000000        -0.000012531539
   23         30.399600000000         0.000066969631
   24         19.000400000000        -0.001847122145
   25          9.322560000000         0.010150547930
   26          3.016680000000        -0.018021163945
   27          1.862190000000        -0.015930822113
   28          1.103310000000        -0.023017610474
   29        162.893000000000        -0.000242508902
   30         30.399600000000         0.001295988637
   31         19.000400000000        -0.035745296400
   32          9.322560000000         0.196432242139
   33          3.016680000000        -0.348743502710
   34          1.862190000000        -0.308291446761
   35          1.103310000000        -0.445434164250
   36        162.893000000000        -0.000000001031
   37         30.399600000000         0.000000005508
   38         19.000400000000        -0.000000151916
   39          9.322560000000         0.000000834831
   40          3.016680000000        -0.000001482149
   41          1.862190000000        -0.000001310229
   42          1.103310000000        -0.000001893082
   43          0.587279000000         0.047698696263
   44          0.587279000000         0.923059712479
 P 44
    1        162.893000000000         0.000066245998
    2         30.399600000000        -0.000847595451
    3         19.000400000000         0.009668559117
    4          9.322560000000        -0.045097448364
    5          3.016680000000         0.061012916700
    6          1.862190000000         0.071516175375
    7          1.103310000000         0.057576074359
    8        162.893000000000        -0.000003423228
    9         30.399600000000         0.000043799061
   10         19.000400000000        -0.000499617842
   11          9.322560000000         0.002330387553
   12          3.016680000000        -0.003152811230
   13          1.862190000000        -0.003695561744
   14          1.103310000000        -0.002975214162
   15        162.893000000000        -0.000000983775
   16         30.399600000000         0.000012587072
   17         19.000400000000        -0.000143581287
   18          9.322560000000         0.000669711958
   19          3.016680000000        -0.000906061904
   20          1.862190000000        -0.001062038754
   21          1.103310000000        -0.000855023663
   22        162.893000000000        -0.000079784168
   23         30.399600000000         0.000426373526
   24         19.000400000000        -0.011760016751
   25          9.322560000000         0.064625186827
   26          3.016680000000        -0.114734800010
   27          1.862190000000        -0.101426283827
   28          1.103310000000        -0.146545525166
   29        162.893000000000         0.000004122806
   30         30.399600000000        -0.000022032634
   31         19.000400000000         0.000607692844
   32          9.322560000000        -0.003339473439
   33          3.016680000000         0.005928862042
   34          1.862190000000         0.005241151283
   35          1.103310000000         0.007572664977
   36        162.893000000000         0.000001184821
   37         30.399600000000        -0.000006331787
   38         19.000400000000         0.000174640121
   39          9.322560000000        -0.000959705305
   40          3.016680000000         0.001703849561
   41          1.862190000000         0.001506213713
   42          1.103310000000         0.002176249304
   43          0.587279000000         0.333963327747
   44          0.587279000000        -0.017257383961
 P 44
    1        162.893000000000         0.000125054978
    2         30.399600000000        -0.001600036739
    3         19.000400000000         0.018251690452
    4          9.322560000000        -0.085132092357
    5          3.016680000000         0.115176300388
    6          1.862190000000         0.135003683532
    7          1.103310000000         0.108688448187
    8        162.893000000000        -0.000006462152
    9         30.399600000000         0.000082681079
   10         19.000400000000        -0.000943146759
   11          9.322560000000         0.004399157282
   12          3.016680000000        -0.005951676349
   13          1.862190000000        -0.006976246220
   14          1.103310000000        -0.005616419908
   15        162.893000000000        -0.000001857108
   16         30.399600000000         0.000023761072
   17         19.000400000000        -0.000271043613
   18          9.322560000000         0.001264239604
   19          3.016680000000        -0.001710405987
   20          1.862190000000        -0.002004849155
   21          1.103310000000        -0.001614059245
   22        162.893000000000        -0.000159269290
   23         30.399600000000         0.000851148919
   24         19.000400000000        -0.023475954607
   25          9.322560000000         0.129008145521
   26          3.016680000000        -0.229039551029
   27          1.862190000000        -0.202472401646
   28          1.103310000000        -0.292541768377
   29        162.893000000000         0.000008230159
   30         30.399600000000        -0.000043982685
   31         19.000400000000         0.001213107934
   32          9.322560000000        -0.006666429863
   33          3.016680000000         0.011835501523
   34          1.862190000000         0.010462657682
   35          1.103310000000         0.015116946089
   36        162.893000000000         0.000002365201
   37         30.399600000000        -0.000012639842
   38         19.000400000000         0.000348625656
   39          9.322560000000        -0.001915813442
   40          3.016680000000         0.003401312752
   41          1.862190000000         0.003006781836
   42          1.103310000000         0.004344341590
   43          0.587279000000         0.528790714614
   44          0.587279000000        -0.027324989418
 P 44
    1        162.893000000000         0.000581566331
    2         30.399600000000        -0.007440947257
    3         19.000400000000         0.084879217283
    4          9.322560000000        -0.395905540038
    5          3.016680000000         0.535625686411
    6          1.862190000000         0.627832639324
    7          1.103310000000         0.505454025432
    8        162.893000000000        -0.000030052142
    9         30.399600000000         0.000384507139
   10         19.000400000000        -0.004386090092
   11          9.322560000000         0.020458216063
   12          3.016680000000        -0.027678183085
   13          1.862190000000        -0.032442930163
   14          1.103310000000        -0.026119077953
   15        162.893000000000        -0.000008636452
   16         30.399600000000         0.000110500517
   17         19.000400000000        -0.001260484326
   18          9.322560000000         0.005879327636
   19          3.016680000000        -0.007954217818
   20          1.862190000000        -0.009323521431
   21          1.103310000000        -0.007506158717
   22        162.893000000000        -0.000643933948
   23         30.399600000000         0.003441238956
   24         19.000400000000        -0.094914494595
   25          9.322560000000         0.521586582356
   26          3.016680000000        -0.926018711168
   27          1.862190000000        -0.818606356749
   28          1.103310000000        -1.182761449270
   29        162.893000000000         0.000033274957
   30         30.399600000000        -0.000177824261
   31         19.000400000000         0.004904657909
   32          9.322560000000        -0.026952719572
   33          3.016680000000         0.047851542744
   34          1.862190000000         0.042301064329
   35          1.103310000000         0.061118592274
   36        162.893000000000         0.000009562631
   37         30.399600000000        -0.000051103532
   38         19.000400000000         0.001409511499
   39          9.322560000000        -0.007745732500
   40          3.016680000000         0.013751682787
   41          1.862190000000         0.012156573954
   42          1.103310000000         0.017564396990
   43          0.587279000000         3.471849441916
   44          0.587279000000        -0.179406042202
 P 44
    1        162.893000000000        -0.011557357227
    2         30.399600000000         0.147872531353
    3         19.000400000000        -1.686788561319
    4          9.322560000000         7.867755590511
    5          3.016680000000       -10.644387517990
    6          1.862190000000       -12.476798777500
    7          1.103310000000       -10.044791830800
    8        162.893000000000         0.000597220646
    9         30.399600000000        -0.007641238992
   10         19.000400000000         0.087163954035
   11          9.322560000000        -0.406562329375
   12          3.016680000000         0.550043393481
   13          1.862190000000         0.644732327506
   14          1.103310000000         0.519059586668
   15        162.893000000000         0.000171630548
   16         30.399600000000        -0.002195955620
   17         19.000400000000         0.025049363713
   18          9.322560000000        -0.116838752591
   19          3.016680000000         0.158072647961
   20          1.862190000000         0.185284556533
   21          1.103310000000         0.149168455228
   22        162.893000000000         0.007474892559
   23         30.399600000000        -0.039946475166
   24         19.000400000000         1.101783267571
   25          9.322560000000        -6.054663952874
   26          3.016680000000        10.749379489158
   27          1.862190000000         9.502518982401
   28          1.103310000000        13.729691970600
   29        162.893000000000        -0.000386261329
   30         30.399600000000         0.002064214096
   31         19.000400000000        -0.056934098496
   32          9.322560000000         0.312871727133
   33          3.016680000000        -0.555468801004
   34          1.862190000000        -0.491037908839
   35          1.103310000000        -0.709474955717
   36        162.893000000000        -0.000111004608
   37         30.399600000000         0.000593218266
   38         19.000400000000        -0.016361843111
   39          9.322560000000         0.089913746745
   40          3.016680000000        -0.159631813189
   41          1.862190000000        -0.141115525464
   42          1.103310000000        -0.203890431630
   43          0.587279000000        -2.000681118274
   44          0.587279000000         0.103384194698
 end
  // -----------------------------------------------
  // The basis set
  // -----------------------------------------------
  BAS[ATNO] = new BFNGauss[NSH];
  // Basis function   1 L = s
  InitBFNGauss(BAS[ATNO][  0]);
  BAS[ATNO][  0].l  = 0;
  BAS[ATNO][  0].ng = 25;
  BAS[ATNO][  0].a[  0] =     12338.799999999999;     BAS[ATNO][  0].d[  0] =         0.000029440636;
  BAS[ATNO][  0].a[  1] =      1854.700000000000;     BAS[ATNO][  0].d[  1] =         0.000215381383;
  BAS[ATNO][  0].a[  2] =       418.443000000000;     BAS[ATNO][  0].d[  2] =         0.000849904228;
  BAS[ATNO][  0].a[  3] =        99.343000000000;     BAS[ATNO][  0].d[  3] =         0.002187128122;
  BAS[ATNO][  0].a[  4] =        28.595800000000;     BAS[ATNO][  0].d[  4] =        -0.046957788022;
  BAS[ATNO][  0].a[  5] =        17.864800000000;     BAS[ATNO][  0].d[  5] =         0.217189647619;
  BAS[ATNO][  0].a[  6] =         8.457140000000;     BAS[ATNO][  0].d[  6] =        -0.424351665315;
  BAS[ATNO][  0].a[  7] =         5.284120000000;     BAS[ATNO][  0].d[  7] =        -0.234722311255;
  BAS[ATNO][  0].a[  8] =         2.320120000000;     BAS[ATNO][  0].d[  8] =         0.527443417496;
  BAS[ATNO][  0].a[  9] =         1.210510000000;     BAS[ATNO][  0].d[  9] =         0.505432680681;
  BAS[ATNO][  0].a[ 10] =     12338.799999999999;     BAS[ATNO][  0].d[ 10] =         0.000013028360;
  BAS[ATNO][  0].a[ 11] =      1854.700000000000;     BAS[ATNO][  0].d[ 11] =         0.000094455787;
  BAS[ATNO][  0].a[ 12] =       418.443000000000;     BAS[ATNO][  0].d[ 12] =         0.000390851506;
  BAS[ATNO][  0].a[ 13] =        99.343000000000;     BAS[ATNO][  0].d[ 13] =         0.000883487269;
  BAS[ATNO][  0].a[ 14] =        28.595800000000;     BAS[ATNO][  0].d[ 14] =        -0.017754430394;
  BAS[ATNO][  0].a[ 15] =        17.864800000000;     BAS[ATNO][  0].d[ 15] =         0.087947292317;
  BAS[ATNO][  0].a[ 16] =         8.457140000000;     BAS[ATNO][  0].d[ 16] =        -0.198394603856;
  BAS[ATNO][  0].a[ 17] =         5.284120000000;     BAS[ATNO][  0].d[ 17] =        -0.076291774232;
  BAS[ATNO][  0].a[ 18] =         2.320120000000;     BAS[ATNO][  0].d[ 18] =         0.265430525505;
  BAS[ATNO][  0].a[ 19] =         1.210510000000;     BAS[ATNO][  0].d[ 19] =         0.392682823925;
  BAS[ATNO][  0].a[ 20] =         0.570494000000;     BAS[ATNO][  0].d[ 20] =        -0.464362502768;
  BAS[ATNO][  0].a[ 21] =         0.303950000000;     BAS[ATNO][  0].d[ 21] =         0.373699959890;
  BAS[ATNO][  0].a[ 22] =         0.139318000000;     BAS[ATNO][  0].d[ 22] =        -0.188431930101;
  BAS[ATNO][  0].a[ 23] =         0.063198000000;     BAS[ATNO][  0].d[ 23] =         0.078780413228;
  BAS[ATNO][  0].a[ 24] =         0.026000000000;     BAS[ATNO][  0].d[ 24] =        -0.018891776711;

FINAL SINGLE POINT ENERGY      -211.840689922665

DIPOLE MOMENT
-------------
                                X             Y             Z
Electronic contribution:     -0.00000      -0.00000      -0.00000
Nuclear contribution   :      0.00000       0.00000       0.00000
                        -----------------------------------------
Total Dipole Moment    :     -0.00000      -0.00000      -0.00000
                        -----------------------------------------
Magnitude (a.u.)       :      0.00000
Magnitude (Debye)      :      0.00000

Rotational constants in cm-1:     0.000000     0.000000     0.000000
Rotational constants in MHz :     0.000000     0.000000     0.000000

                             ****ORCA TERMINATED NORMALLY****
TOTAL RUN TIME: 0 days 0 hours 0 minutes 1 seconds 52 msec
