                         Program Version 4.2.0 -  RELEASE  -
|  1> #
|  2> # 52_Te CCSD(T)/aug-cc-pVQZ-PP
|  3> #
|  4> ! CCSD(T) aug-cc-pVQZ-PP tightscf
|  5>
|  6> *xyz 0 3
|  7>  Te 0.0 0.0 0.0
|  8> *
|  9>
| 10> %maxcore 5000
| 11>
| 12> %pal
| 13> nprocs 24
| 14> end
| 15>
| 16>
| 17>                          ****END OF INPUT****

CARTESIAN COORDINATES (ANGSTROEM)
---------------------------------
  Te     0.000000    0.000000    0.000000

 Total Charge           Charge          ....    0
 Multiplicity           Mult            ....    3
 Number of Electrons    NEL             ....   24
 Basis Dimension        Dim             ....   92

ORBITAL ENERGIES
----------------
                 SPIN UP ORBITALS
  NO   OCC          E(Eh)            E(eV)
   0   1.0000      -7.137211      -194.2134
   1   1.0000      -5.109211      -139.0287
   2   1.0000      -5.109211      -139.0287
   3   1.0000      -5.089443      -138.4908
   4   1.0000      -1.967515       -53.5388
   5   1.0000      -1.967515       -53.5388
   6   1.0000      -1.951403       -53.1004
   7   1.0000      -1.951403       -53.1004
   8   1.0000      -1.946141       -52.9572
   9   1.0000      -0.831453       -22.6250
  10   1.0000      -0.398561       -10.8454
  11   1.0000      -0.398561       -10.8454
  12   1.0000      -0.342820        -9.3286
  13   0.0000       0.049713         1.3528
  14   0.0000       0.054691         1.4882
  15   0.0000       0.054691         1.4882
  16   0.0000       0.059750         1.6259
  17   0.0000       0.126377         3.4389

                 SPIN DOWN ORBITALS
  NO   OCC          E(Eh)            E(eV)
   0   1.0000      -7.125179      -193.8860
   1   1.0000      -5.091529      -138.5475
   2   1.0000      -5.091529      -138.5475
   3   1.0000      -5.088683      -138.4701
   4   1.0000      -1.952411       -53.1278
   5   1.0000      -1.952411       -53.1278
   6   1.0000      -1.943767       -52.8926
   7   1.0000      -1.943767       -52.8926
   8   1.0000      -1.941073       -52.8193
   9   1.0000      -0.665870       -18.1192
  10   1.0000      -0.312170        -8.4946
  11   0.0000      -0.012981        -0.3532
  12   0.0000      -0.012981        -0.3532
  13   0.0000       0.055377         1.5069
  14   0.0000       0.060536         1.6473
  15   0.0000       0.067138         1.8269

E(0)                                       ...   -267.006903951
E(0)                                       ...   -267.006903951
E(CORR)                                    ...     -0.217794925
E(TOT)                                     ...   -267.224698875
E(CCSD(T))                                 ...   -267.232135392

MULLIKEN ATOMIC CHARGES AND SPIN DENSITIES
------------------------------------------
   0 Te:   -0.000000    2.000000
Sum of atomic charges       :   -0.0000000

LOEWDIN ATOMIC CHARGES AND SPIN DENSITIES
-----------------------------------------
   0 Te:   -0.000000    2.000000

FINAL SINGLE POINT ENERGY      -267.232135392307

DIPOLE MOMENT
-------------
                                X             Y             Z
Electronic contribution:     -0.00000       0.00000      -0.00000
Nuclear contribution   :      0.00000       0.00000       0.00000
                        -----------------------------------------
Total Dipole Moment    :     -0.00000       0.00000      -0.00000
                        -----------------------------------------
Magnitude (a.u.)       :      0.00000
Magnitude (Debye)      :      0.00000

Rotational constants in cm-1:     0.000000     0.000000     0.000000
Rotational constants in MHz :     0.000000     0.000000     0.000000

                             ****ORCA TERMINATED NORMALLY****
TOTAL RUN TIME: 0 days 0 hours 0 minutes 20 seconds 552 msec
