                         Program Version 4.2.0 -  RELEASE  -
|  1> # input to generate an atomic fitting density for Te
|  2> # this file is use internally by ORCA
|  3> #
|  4> # atomic ground state (S=3): 1s2 2s2 2p6 3s2 3p6 4s2 3d10 4p6 5s2 4d10 5p4
|  5> #
|  6> ! RHF AllowRHF def2-SVP def2/J  NoMulliken NoLoewdin NoMayer NoPrintMOs
|  7>
|  8> %output print[p_atomdensfit] 2 end
|  9>
| 10> %scf
| 11>   guess hcore
| 12>   maxiter 1000
| 13>   maxdisk 500000
| 14>   SCFMode Conventional
| 15>   lshift 1.000000
| 16>   hftyp rohf
| 17>   rohf_case sahf
| 18>   rohf_numop   2
| 19>   rohf_norb[1] 3
| 20>   rohf_nel[1]  4
| 21> end
| 22>
| 23> %basis
| 24>   NewECP 52
| 25>     N_core 28
| 26>     lmax g
| 27>     s 2
| 28>       1      16.8144730000    281.0458430000  2
| 29>       2       8.7935260000     61.6206560000  2
| 30>     p 4
| 31>       1      14.8778010000     67.4494640000  2
| 32>       2      14.2697310000    134.9043040000  2
| 33>       3       8.7244350000     14.6895470000  2
| 34>       4       8.2915150000     29.4150630000  2
| 35>     d 4
| 36>       1      15.2050080000     35.4320570000  2
| 37>       2      15.2258480000     53.1356870000  2
| 38>       3       6.0717690000      9.0698020000  2
| 39>       4       5.8047600000     13.1223040000  2
| 40>     f 2
| 41>       1      15.2061680000    -15.7454500000  2
| 42>       2      15.2017020000    -20.7424480000  2
| 43>     g 1
| 44>       1       1.0000000000      0.0000000000  2
| 45>   end
| 46>   NewGTO 52
| 47>     s 10
| 48>      1   15746.3000000000      0.0000586917
| 49>      2    2369.2500000000      0.0004325794
| 50>      3     535.8600000000      0.0018063996
| 51>      4     141.8850000000      0.0039519067
| 52>      5      27.8197000000     -0.0635033148
| 53>      6      17.3879000000      0.3983643682
| 54>      7      10.8656000000     -0.4321327370
| 55>      8       6.5688500000     -0.5642824971
| 56>      9       2.4013900000      0.7473972894
| 57>     10       1.2805500000      0.6923347082
| 58>     s 10
| 59>      1   15746.3000000000      0.0000363535
| 60>      2    2369.2500000000      0.0002704704
| 61>      3     535.8600000000      0.0011415015
| 62>      4     141.8850000000      0.0024531375
| 63>      5      27.8197000000     -0.0337186445
| 64>      6      17.3879000000      0.2292280353
| 65>      7      10.8656000000     -0.2896650848
| 66>      8       6.5688500000     -0.2868004250
| 67>      9       2.4013900000      0.5373883521
| 68>     10       1.2805500000      0.7336277221
| 69>     s 1
| 70>      1       0.5900670000      1.0000000000
| 71>     s 1
| 72>      1       0.3524580000      1.0000000000
| 73>     s 1
| 74>      1       0.1618080000      1.0000000000
| 75>     s 1
| 76>      1       0.0731870000      1.0000000000
| 77>     s 1
| 78>      1       0.0296000000      1.0000000000
| 79>     p 7
| 80>      1     750.2220000000      0.0000598114
| 81>      2     163.9610000000      0.0004715901
| 82>      3      16.9227000000      0.0959133768
| 83>      4      10.5755000000     -0.3085027477
| 84>      5       5.7046200000     -0.0263768400
| 85>      6       2.9802200000      0.5699891117
| 86>      7       1.5197000000      0.5918133818
| 87>     p 7
| 88>      1     750.2220000000     -0.0000432786
| 89>      2     163.9610000000     -0.0004111464
| 90>      3      16.9227000000     -0.0736574202
| 91>      4      10.5755000000      0.2516107828
| 92>      5       5.7046200000     -0.0188910955
| 93>      6       2.9802200000     -0.4778846682
| 94>      7       1.5197000000     -0.6326190784
| 95>     p 1
| 96>      1       0.7560490000      1.0000000000
| 97>     p 1
| 98>      1       0.3279680000      1.0000000000
| 99>     p 1
|100>      1       0.1405850000      1.0000000000
|101>     p 1
|102>      1       0.0580960000      1.0000000000
|103>     p 1
|104>      1       0.0226000000      1.0000000000
|105>   end
|106>   NewAuxGTO 52
|107>     S 1
|108>      1 1310.72 1.0
|109>     S 1
|110>      1  655.36 1.0
|111>     S 1
|112>      1  327.68 1.0
|113>     S 1
|114>      1  163.84 1.0
|115>     S 1
|116>      1   81.82 1.0
|117>     S 1
|118>      1   40.96 1.0
|119>     S 1
|120>      1   20.48 1.0
|121>     S 1
|122>      1   10.24 1.0
|123>     S 1
|124>      1    5.12 1.0
|125>     S 1
|126>      1    2.56 1.0
|127>     S 1
|128>      1    1.28 1.0
|129>     S 1
|130>      1    0.64 1.0
|131>     S 1
|132>      1    0.32 1.0
|133>     S 1
|134>      1    0.16 1.0
|135>     S 1
|136>      1    0.08 1.0
|137>     S 1
|138>      1    0.04 1.0
|139>     S 1
|140>      1    0.02 1.0
|141>     S 1
|142>      1    0.01 1.0
|143>   end
|144> end
|145>
|146> * xyz 0 3
|147> 52  0.0 0.0 0.0
|148> *
|149>
|150>
|151>                          ****END OF INPUT****

CARTESIAN COORDINATES (ANGSTROEM)
---------------------------------
  Te     0.000000    0.000000    0.000000

 Total Charge           Charge          ....    0
 Multiplicity           Mult            ....    3
 Number of Electrons    NEL             ....   24
 Basis Dimension        Dim             ....   28

ORBITAL ENERGIES
----------------

  NO   OCC          E(Eh)            E(eV)
   0   2.0000     -11.604469      -315.7737
   1   2.0000      -9.263510      -252.0729
   2   2.0000      -9.263510      -252.0729
   3   2.0000      -9.257904      -251.9204
   4   2.0000      -3.055419       -83.1422
   5   2.0000      -2.192225       -59.6535
   6   2.0000      -2.192225       -59.6535
   7   2.0000      -2.182874       -59.3990
   8   2.0000      -0.628191       -17.0939
   9   2.0000      -0.370353       -10.0778
  10   1.3333      -0.387556       -10.5459
  11   1.3333      -0.387556       -10.5459
  12   1.3333      -0.087113        -2.3705
  13   0.0000       0.009650         0.2626
  14   0.0000       0.009650         0.2626
  15   0.0000       0.014370         0.3910
  16   0.0000       0.252605         6.8737
  17   0.0000       0.252605         6.8737

CleanUpVectors: The p-vectors have cracked symmetry
CleanUpVectors: The p-vectors have cracked symmetry
CleanUpVectors: The p-vectors have cracked symmetry
CleanUpVectors: The p-vectors have cracked symmetry
CleanUpVectors: The p-vectors have cracked symmetry
CleanUpVectors: The p-vectors have cracked symmetry
CleanUpVectors: The p-vectors have cracked symmetry
CleanUpVectors: The p-vectors have cracked symmetry
CleanUpVectors: The p-vectors have cracked symmetry
CleanUpVectors: The p-vectors have cracked symmetry
CleanUpVectors: The p-vectors have cracked symmetry
CleanUpVectors: The p-vectors have cracked symmetry
CleanUpVectors: The p-vectors have cracked symmetry
CleanUpVectors: The p-vectors have cracked symmetry
CleanUpVectors: The p-vectors have cracked symmetry
CleanUpVectors: The p-vectors have cracked symmetry
CleanUpVectors: The p-vectors have cracked symmetry
CleanUpVectors: The p-vectors have cracked symmetry
CleanUpVectors: The p-vectors have cracked symmetry
CleanUpVectors: The p-vectors have cracked symmetry
--------------------------
ATOM BASIS FOR ELEMENT Te
--------------------------
 NewGTO Te
 S 25
    1      15746.299999999999         0.000042692368
    2       2369.250000000000         0.000314658442
    3        535.860000000000         0.001313975848
    4        141.885000000000         0.002874618637
    5         27.819700000000        -0.046192338554
    6         17.387900000000         0.289770413116
    7         10.865600000000        -0.314333539134
    8          6.568850000000        -0.410459331585
    9          2.401390000000         0.543657110423
   10          1.280550000000         0.503604565127
   11      15746.299999999999         0.000018090508
   12       2369.250000000000         0.000134593558
   13        535.860000000000         0.000568042744
   14        141.885000000000         0.001220749125
   15         27.819700000000        -0.016779330862
   16         17.387900000000         0.114070215581
   17         10.865600000000        -0.144145364358
   18          6.568850000000        -0.142719830345
   19          2.401390000000         0.267419319344
   20          1.280550000000         0.365073461919
   21          0.590067000000        -0.570099740193
   22          0.352458000000         0.490303370895
   23          0.161808000000        -0.210029683109
   24          0.073187000000         0.082407667640
   25          0.029600000000        -0.019029360427
 P 44
    1        750.222000000000         0.000003829799
    2        163.961000000000         0.000030196505
    3         16.922700000000         0.006141453695
    4         10.575500000000        -0.019753817485
    5          5.704620000000        -0.001688942115
    6          2.980220000000         0.036497117011
    7          1.519700000000         0.037894552371
    8        750.222000000000        -0.000035918514
    9        163.961000000000        -0.000283203800
   10         16.922700000000        -0.057598818994
   11         10.575500000000         0.185265022636
   12          5.704620000000         0.015840072402
   13          2.980220000000        -0.342295316553
   14          1.519700000000        -0.355401436107
   15        750.222000000000        -0.000004230560
   16        163.961000000000        -0.000033356354
   17         16.922700000000        -0.006784112995
   18         10.575500000000         0.021820913512
   19          5.704620000000         0.001865677854
   20          2.980220000000        -0.040316279845
   21          1.519700000000        -0.041859946843
   22        750.222000000000         0.000002120286
   23        163.961000000000         0.000020142700
   24         16.922700000000         0.003608591325
   25         10.575500000000        -0.012326802725
   26          5.704620000000         0.000925504086
   27          2.980220000000         0.023412311526
   28          1.519700000000         0.030992990414
   29        750.222000000000        -0.000019885513
   30        163.961000000000        -0.000188912235
   31         16.922700000000        -0.033843876202
   32         10.575500000000         0.115609318939
   33          5.704620000000        -0.008680020230
   34          2.980220000000        -0.219576921177
   35          1.519700000000        -0.290673793817
   36        750.222000000000        -0.000002342159
   37        163.961000000000        -0.000022250490
   38         16.922700000000        -0.003986204654
   39         10.575500000000         0.013616714660
   40          5.704620000000        -0.001022351483
   41          2.980220000000        -0.025862242846
   42          1.519700000000        -0.034236185681
   43          0.756049000000        -0.015034945627
   44          0.756049000000         0.141008164322
 S 25
    1      15746.299999999999        -0.000050828746
    2       2369.250000000000        -0.000374626538
    3        535.860000000000        -0.001564395411
    4        141.885000000000        -0.003422467934
    5         27.819700000000         0.054995746384
    6         17.387900000000        -0.344995309785
    7         10.865600000000         0.374239714619
    8          6.568850000000         0.488685310317
    9          2.401390000000        -0.647268129311
   10          1.280550000000        -0.599582307548
   11      15746.299999999999         0.000097887796
   12       2369.250000000000         0.000728286173
   13        535.860000000000         0.003073681109
   14        141.885000000000         0.006605477428
   15         27.819700000000        -0.090793013087
   16         17.387900000000         0.617234302196
   17         10.865600000000        -0.779971028644
   18          6.568850000000        -0.772257459532
   19          2.401390000000         1.447006794271
   20          1.280550000000         1.975413672804
   21          0.590067000000        -2.449387683704
   22          0.352458000000         0.660067382352
   23          0.161808000000        -0.511979079152
   24          0.073187000000         0.193817956916
   25          0.029600000000        -0.045006848031
 P 44
    1        750.222000000000         0.000050846188
    2        163.961000000000         0.000400902819
    3         16.922700000000         0.081536790387
    4         10.575500000000        -0.262260851534
    5          5.704620000000        -0.022423179601
    6          2.980220000000         0.484552669026
    7          1.519700000000         0.503105669617
    8        750.222000000000         0.000000933328
    9        163.961000000000         0.000007358933
   10         16.922700000000         0.001496681345
   11         10.575500000000        -0.004814034526
   12          5.704620000000        -0.000411597690
   13          2.980220000000         0.008894401374
   14          1.519700000000         0.009234958438
   15        750.222000000000        -0.000006907933
   16        163.961000000000        -0.000054466416
   17         16.922700000000        -0.011077539327
   18         10.575500000000         0.035630601634
   19          5.704620000000         0.003046399701
   20          2.980220000000        -0.065831034330
   21          1.519700000000        -0.068351633837
   22        750.222000000000        -0.000081306825
   23        163.961000000000        -0.000772414278
   24         16.922700000000        -0.138379037327
   25         10.575500000000         0.472697221955
   26          5.704620000000        -0.035490404120
   27          2.980220000000        -0.897794413097
   28          1.519700000000        -1.188491516888
   29        750.222000000000        -0.000001492460
   30        163.961000000000        -0.000014178361
   31         16.922700000000        -0.002540072067
   32         10.575500000000         0.008676783948
   33          5.704620000000        -0.000651458385
   34          2.980220000000        -0.016479826388
   35          1.519700000000        -0.021815833978
   36        750.222000000000         0.000011046296
   37        163.961000000000         0.000104939739
   38         16.922700000000         0.018800092826
   39         10.575500000000        -0.064220360418
   40          5.704620000000         0.004821704969
   41          2.980220000000         0.121973809263
   42          1.519700000000         0.161467743035
   43          0.756049000000         1.131444911253
   44          0.756049000000         0.020768692067
 S 25
    1      15746.299999999999        -0.000022612521
    2       2369.250000000000        -0.000166662593
    3        535.860000000000        -0.000695962965
    4        141.885000000000        -0.001522576016
    5         27.819700000000         0.024466322557
    6         17.387900000000        -0.153480352298
    7         10.865600000000         0.166490504696
    8          6.568850000000         0.217404676131
    9          2.401390000000        -0.287954466918
   10          1.280550000000        -0.266740159024
   11      15746.299999999999         0.000033507177
   12       2369.250000000000         0.000249293726
   13        535.860000000000         0.001052126821
   14        141.885000000000         0.002261067340
   15         27.819700000000        -0.031078619039
   16         17.387900000000         0.211280461830
   17         10.865600000000        -0.266985549182
   18          6.568850000000        -0.264345179977
   19          2.401390000000         0.495313145555
   20          1.280550000000         0.676187813300
   21          0.590067000000        -1.213328142987
   22          0.352458000000         0.530004192383
   23          0.161808000000        -0.325450274592
   24          0.073187000000         2.166102271243
   25          0.029600000000        -2.174239018958
 S 25
    1      15746.299999999999        -0.000026898267
    2       2369.250000000000        -0.000198250116
    3        535.860000000000        -0.000827868665
    4        141.885000000000        -0.001811149496
    5         27.819700000000         0.029103419018
    6         17.387900000000        -0.182569448007
    7         10.865600000000         0.198045411582
    8          6.568850000000         0.258609334166
    9          2.401390000000        -0.342530410499
   10          1.280550000000        -0.317295359731
   11      15746.299999999999         0.000043564640
   12       2369.250000000000         0.000324121354
   13        535.860000000000         0.001367931617
   14        141.885000000000         0.002939745895
   15         27.819700000000        -0.040407130354
   16         17.387900000000         0.274698085894
   17         10.865600000000        -0.347123528066
   18          6.568850000000        -0.343690629630
   19          2.401390000000         0.643985590639
   20          1.280550000000         0.879151325256
   21          0.590067000000        -0.058453503965
   22          0.352458000000        -4.161826832360
   23          0.161808000000         8.210070485885
   24          0.073187000000        -6.859036638684
   25          0.029600000000         2.297081458280
 S 25
    1      15746.299999999999        -0.000176915067
    2       2369.250000000000        -0.001303929066
    3        535.860000000000        -0.005445051114
    4        141.885000000000        -0.011912277871
    5         27.819700000000         0.191418773022
    6         17.387900000000        -1.200794302102
    7         10.865600000000         1.302582685008
    8          6.568850000000         1.700923228539
    9          2.401390000000        -2.252888255477
   10          1.280550000000        -2.086912482938
   11      15746.299999999999         0.000231797309
   12       2369.250000000000         0.001724574274
   13        535.860000000000         0.007278445701
   14        141.885000000000         0.015641703573
   15         27.819700000000        -0.214996934403
   16         17.387900000000         1.461604569209
   17         10.865600000000        -1.846963487384
   18          6.568850000000        -1.828697833938
   19          2.401390000000         3.426497417041
   20          1.280550000000         4.677759547675
   21          0.590067000000       -15.181137952473
   22          0.352458000000        19.686749746893
   23          0.161808000000       -11.696521360009
   24          0.073187000000         5.053848782446
   25          0.029600000000        -1.148066363586
 P 44
    1        750.222000000000         0.000007042406
    2        163.961000000000         0.000055526689
    3         16.922700000000         0.011293180759
    4         10.575500000000        -0.036324206389
    5          5.704620000000        -0.003105702582
    6          2.980220000000         0.067112537205
    7          1.519700000000         0.069682204079
    8        750.222000000000        -0.000005270587
    9        163.961000000000        -0.000041556569
   10         16.922700000000        -0.008451896743
   11         10.575500000000         0.027185294225
   12          5.704620000000         0.002324329885
   13          2.980220000000        -0.050227499826
   14          1.519700000000        -0.052150656778
   15        750.222000000000         0.000051123881
   16        163.961000000000         0.000403092323
   17         16.922700000000         0.081982098129
   18         10.575500000000        -0.263693171682
   19          5.704620000000        -0.022545642301
   20          2.980220000000         0.487199021108
   21          1.519700000000         0.505853347675
   22        750.222000000000        -0.000011231265
   23        163.961000000000        -0.000106696936
   24         16.922700000000        -0.019114896849
   25         10.575500000000         0.065295718291
   26          5.704620000000        -0.004902443513
   27          2.980220000000        -0.124016237791
   28          1.519700000000        -0.164171490065
   29        750.222000000000         0.000008405558
   30        163.961000000000         0.000079852745
   31         16.922700000000         0.014305724656
   32         10.575500000000        -0.048867779639
   33          5.704620000000         0.003669023568
   34          2.980220000000         0.092814633771
   35          1.519700000000         0.122867109965
   36        750.222000000000        -0.000081532622
   37        163.961000000000        -0.000774559341
   38         16.922700000000        -0.138763328307
   39         10.575500000000         0.474009944475
   40          5.704620000000        -0.035588964151
   41          2.980220000000        -0.900287668589
   42          1.519700000000        -1.191792064271
   43          0.756049000000         0.156842581214
   44          0.756049000000        -0.117382102493
 P 44
    1        750.222000000000         0.000020369304
    2        163.961000000000         0.000160604201
    3         16.922700000000         0.032664153219
    4         10.575500000000        -0.105063353576
    5          5.704620000000        -0.008982867374
    6          2.980220000000         0.194114859667
    7          1.519700000000         0.201547308886
    8        750.222000000000         0.000027216830
    9        163.961000000000         0.000214594338
   10         16.922700000000         0.043644825498
   11         10.575500000000        -0.140382385003
   12          5.704620000000        -0.012002627969
   13          2.980220000000         0.259370237455
   14          1.519700000000         0.269301244911
   15         16.922700000000        -0.000000007662
   16         10.575500000000         0.000000024646
   17          2.980220000000        -0.000000045535
   18          1.519700000000        -0.000000047279
   19        750.222000000000        -0.000028262006
   20        163.961000000000        -0.000268488863
   21         16.922700000000        -0.048100134140
   22         10.575500000000         0.164308122263
   23          5.704620000000        -0.012336356950
   24          2.980220000000        -0.312070618025
   25          1.519700000000        -0.413116050603
   26        750.222000000000        -0.000037762814
   27        163.961000000000        -0.000358746467
   28         16.922700000000        -0.064269903061
   29         10.575500000000         0.219543402088
   30          5.704620000000        -0.016483456429
   31          2.980220000000        -0.416979052704
   32          1.519700000000        -0.551992816651
   33         16.922700000000         0.000000011283
   34         10.575500000000        -0.000000038543
   35          2.980220000000         0.000000073205
   36          1.519700000000         0.000000096909
   37          0.756049000000         0.473932925792
   38          0.756049000000         0.633254433542
   39          0.756049000000        -0.000000111175
   40          0.327968000000         0.137031660624
   41          0.327968000000         0.183097442494
   42          0.140585000000        -0.495004022558
   43          0.140585000000        -0.661408977615
   44          0.058096000000        -0.253866394962
 P 44
    1        750.222000000000         0.000001612352
    2        163.961000000000         0.000012712784
    3         16.922700000000         0.002585563279
    4         10.575500000000        -0.008316393422
    5          5.704620000000        -0.000711047731
    6          2.980220000000         0.015365353257
    7          1.519700000000         0.015953676109
    8        750.222000000000        -0.000001206696
    9        163.961000000000        -0.000009514338
   10         16.922700000000        -0.001935053934
   11         10.575500000000         0.006224047943
   12          5.704620000000         0.000532153175
   13          2.980220000000        -0.011499539582
   14          1.519700000000        -0.011939844586
   15        750.222000000000         0.000011704765
   16        163.961000000000         0.000092287614
   17         16.922700000000         0.018769725463
   18         10.575500000000        -0.060372307515
   19          5.704620000000        -0.005161803931
   20          2.980220000000         0.111543764807
   21          1.519700000000         0.115814655603
   22        750.222000000000        -0.000002179612
   23        163.961000000000        -0.000020706295
   24         16.922700000000        -0.003709560003
   25         10.575500000000         0.012671707666
   26          5.704620000000        -0.000951399765
   27          2.980220000000        -0.024067389903
   28          1.519700000000        -0.031860176802
   29        750.222000000000         0.000001631237
   30        163.961000000000         0.000015496738
   31         16.922700000000         0.002776261071
   32         10.575500000000        -0.009483596077
   33          5.704620000000         0.000712034346
   34          2.980220000000         0.018012205655
   35          1.519700000000         0.023844382755
   36        750.222000000000        -0.000015822746
   37        163.961000000000        -0.000150315975
   38         16.922700000000        -0.026929305274
   39         10.575500000000         0.091989422952
   40          5.704620000000        -0.006906623614
   41          2.980220000000        -0.174715623775
   42          1.519700000000        -0.231286844399
   43          0.756049000000         0.040776092757
   44          0.756049000000        -0.030517117623
 P 44
    1        750.222000000000         0.000003311951
    2        163.961000000000         0.000026113474
    3         16.922700000000         0.005311034794
    4         10.575500000000        -0.017082797851
    5          5.704620000000        -0.001460571191
    6          2.980220000000         0.031562146027
    7          1.519700000000         0.032770626655
    8        750.222000000000        -0.000002478688
    9        163.961000000000        -0.000019543509
   10         16.922700000000        -0.003974816187
   11         10.575500000000         0.012784887323
   12          5.704620000000         0.001093101860
   13          2.980220000000        -0.023621334406
   14          1.519700000000        -0.024525769897
   15        750.222000000000         0.000024042891
   16        163.961000000000         0.000189569033
   17         16.922700000000         0.038555105507
   18         10.575500000000        -0.124011440151
   19          5.704620000000        -0.010602919875
   20          2.980220000000         0.229123309725
   21          1.519700000000         0.237896194847
   22        750.222000000000        -0.000004573241
   23        163.961000000000        -0.000043445753
   24         16.922700000000        -0.007783364051
   25         10.575500000000         0.026587658330
   26          5.704620000000        -0.001996218076
   27          2.980220000000        -0.050497972057
   28          1.519700000000        -0.066848724534
   29        750.222000000000         0.000003422646
   30        163.961000000000         0.000032515111
   31         16.922700000000         0.005825124974
   32         10.575500000000        -0.019898392458
   33          5.704620000000         0.001493983795
   34          2.980220000000         0.037793041187
   35          1.519700000000         0.050030060550
   36        750.222000000000        -0.000033199137
   37        163.961000000000        -0.000315391570
   38         16.922700000000        -0.056502816084
   39         10.575500000000         0.193011345587
   40          5.704620000000        -0.014491412973
   41          2.980220000000        -0.366586685270
   42          1.519700000000        -0.485283890489
   43          0.756049000000         0.063828204297
   44          0.756049000000        -0.047769481737
 P 44
    1        750.222000000000         0.000016030377
    2        163.961000000000         0.000126393417
    3         16.922700000000         0.025706263530
    4         10.575500000000        -0.082683492092
    5          5.704620000000        -0.007069399731
    6          2.980220000000         0.152765868574
    7          1.519700000000         0.158615109391
    8        750.222000000000        -0.000011997248
    9        163.961000000000        -0.000094593731
   10         16.922700000000        -0.019238750327
   11         10.575500000000         0.061880913135
   12          5.704620000000         0.005290789003
   13          2.980220000000        -0.114331061787
   14          1.519700000000        -0.118708675187
   15        750.222000000000         0.000116371462
   16        163.961000000000         0.000917544641
   17         16.922700000000         0.186612918417
   18         10.575500000000        -0.600235337433
   19          5.704620000000        -0.051319839372
   20          2.980220000000         1.108993710250
   21          1.519700000000         1.151455886764
   22        750.222000000000        -0.000019948779
   23        163.961000000000        -0.000189513259
   24         16.922700000000        -0.033951550413
   25         10.575500000000         0.115977129712
   26          5.704620000000        -0.008707635694
   27          2.980220000000        -0.220275504627
   28          1.519700000000        -0.291598571798
   29        750.222000000000         0.000014929808
   30        163.961000000000         0.000141833070
   31         16.922700000000         0.025409581632
   32         10.575500000000        -0.086798108156
   33          5.704620000000         0.006516856441
   34          2.980220000000         0.164855753219
   35          1.519700000000         0.218234443601
   36        750.222000000000        -0.000144816838
   37        163.961000000000        -0.001375758956
   38         16.922700000000        -0.246469032731
   39         10.575500000000         0.841928295790
   40          5.704620000000        -0.063212504897
   41          2.980220000000        -1.599075444242
   42          1.519700000000        -2.116840528989
   43          0.756049000000         0.520041310103
   44          0.756049000000        -0.389202612552
 P 44
    1        750.222000000000        -0.000208075702
    2        163.961000000000        -0.001640597631
    3         16.922700000000        -0.333669554895
    4         10.575500000000         1.073238978162
    5          5.704620000000         0.091761428447
    6          2.980220000000        -1.982914370666
    7          1.519700000000        -2.058838029421
    8        750.222000000000         0.000155725344
    9        163.961000000000         0.001227835001
   10         16.922700000000         0.249720681282
   11         10.575500000000        -0.803219727042
   12          5.704620000000        -0.068674909326
   13          2.980220000000         1.484027296774
   14          1.519700000000         1.540849105990
   15        750.222000000000        -0.001510511748
   16        163.961000000000        -0.011909809607
   17         16.922700000000        -2.422251986242
   18         10.575500000000         7.791107125085
   19          5.704620000000         0.666135999090
   20          2.980220000000       -14.394835256720
   21          1.519700000000       -14.945998017971
   22        750.222000000000         0.000151082340
   23        163.961000000000         0.001435281180
   24         16.922700000000         0.257132517630
   25         10.575500000000        -0.878354331018
   26          5.704620000000         0.065947394485
   27          2.980220000000         1.668259457601
   28          1.519700000000         2.208425653358
   29        750.222000000000        -0.000113071104
   30        163.961000000000        -0.001074174700
   31         16.922700000000        -0.192439815202
   32         10.575500000000         0.657366663308
   33          5.704620000000        -0.049355501687
   34          2.980220000000        -1.248537309430
   35          1.519700000000        -1.652801553593
   36        750.222000000000         0.001096772217
   37        163.961000000000         0.010419328455
   38         16.922700000000         1.866636444411
   39         10.575500000000        -6.376354964725
   40          5.704620000000         0.478740732969
   41          2.980220000000        12.110618800727
   42          1.519700000000        16.031919444972
   43          0.756049000000         0.000882963587
   44          0.756049000000        -0.000660816262
 end
  // -----------------------------------------------
  // The basis set
  // -----------------------------------------------
  BAS[ATNO] = new BFNGauss[NSH];
  // Basis function   1 L = s
  InitBFNGauss(BAS[ATNO][  0]);
  BAS[ATNO][  0].l  = 0;
  BAS[ATNO][  0].ng = 25;
  BAS[ATNO][  0].a[  0] =     15746.299999999999;     BAS[ATNO][  0].d[  0] =        -0.000042692368;
  BAS[ATNO][  0].a[  1] =      2369.250000000000;     BAS[ATNO][  0].d[  1] =        -0.000314658442;
  BAS[ATNO][  0].a[  2] =       535.860000000000;     BAS[ATNO][  0].d[  2] =        -0.001313975848;
  BAS[ATNO][  0].a[  3] =       141.885000000000;     BAS[ATNO][  0].d[  3] =        -0.002874618637;
  BAS[ATNO][  0].a[  4] =        27.819700000000;     BAS[ATNO][  0].d[  4] =         0.046192338554;
  BAS[ATNO][  0].a[  5] =        17.387900000000;     BAS[ATNO][  0].d[  5] =        -0.289770413116;
  BAS[ATNO][  0].a[  6] =        10.865600000000;     BAS[ATNO][  0].d[  6] =         0.314333539134;
  BAS[ATNO][  0].a[  7] =         6.568850000000;     BAS[ATNO][  0].d[  7] =         0.410459331585;
  BAS[ATNO][  0].a[  8] =         2.401390000000;     BAS[ATNO][  0].d[  8] =        -0.543657110423;
  BAS[ATNO][  0].a[  9] =         1.280550000000;     BAS[ATNO][  0].d[  9] =        -0.503604565127;
  BAS[ATNO][  0].a[ 10] =     15746.299999999999;     BAS[ATNO][  0].d[ 10] =        -0.000018090508;
  BAS[ATNO][  0].a[ 11] =      2369.250000000000;     BAS[ATNO][  0].d[ 11] =        -0.000134593558;
  BAS[ATNO][  0].a[ 12] =       535.860000000000;     BAS[ATNO][  0].d[ 12] =        -0.000568042744;
  BAS[ATNO][  0].a[ 13] =       141.885000000000;     BAS[ATNO][  0].d[ 13] =        -0.001220749125;
  BAS[ATNO][  0].a[ 14] =        27.819700000000;     BAS[ATNO][  0].d[ 14] =         0.016779330862;
  BAS[ATNO][  0].a[ 15] =        17.387900000000;     BAS[ATNO][  0].d[ 15] =        -0.114070215581;
  BAS[ATNO][  0].a[ 16] =        10.865600000000;     BAS[ATNO][  0].d[ 16] =         0.144145364358;
  BAS[ATNO][  0].a[ 17] =         6.568850000000;     BAS[ATNO][  0].d[ 17] =         0.142719830345;
  BAS[ATNO][  0].a[ 18] =         2.401390000000;     BAS[ATNO][  0].d[ 18] =        -0.267419319344;
  BAS[ATNO][  0].a[ 19] =         1.280550000000;     BAS[ATNO][  0].d[ 19] =        -0.365073461919;
  BAS[ATNO][  0].a[ 20] =         0.590067000000;     BAS[ATNO][  0].d[ 20] =         0.570099740193;
  BAS[ATNO][  0].a[ 21] =         0.352458000000;     BAS[ATNO][  0].d[ 21] =        -0.490303370895;
  BAS[ATNO][  0].a[ 22] =         0.161808000000;     BAS[ATNO][  0].d[ 22] =         0.210029683109;
  BAS[ATNO][  0].a[ 23] =         0.073187000000;     BAS[ATNO][  0].d[ 23] =        -0.082407667640;
  BAS[ATNO][  0].a[ 24] =         0.029600000000;     BAS[ATNO][  0].d[ 24] =         0.019029360427;

FINAL SINGLE POINT ENERGY      -234.462508907176

DIPOLE MOMENT
-------------
                                X             Y             Z
Electronic contribution:     -0.00000      -0.00000       0.00000
Nuclear contribution   :      0.00000       0.00000       0.00000
                        -----------------------------------------
Total Dipole Moment    :     -0.00000      -0.00000       0.00000
                        -----------------------------------------
Magnitude (a.u.)       :      0.00000
Magnitude (Debye)      :      0.00000

Rotational constants in cm-1:     0.000000     0.000000     0.000000
Rotational constants in MHz :     0.000000     0.000000     0.000000

                             ****ORCA TERMINATED NORMALLY****
TOTAL RUN TIME: 0 days 0 hours 0 minutes 1 seconds 155 msec
