                         Program Version 4.2.0 -  RELEASE  -
|  1> # input to generate an atomic fitting density for I
|  2> # this file is use internally by ORCA
|  3> #
|  4> # atomic ground state (S=2): 1s2 2s2 2p6 3s2 3p6 4s2 3d10 4p6 5s2 4d10 5p5
|  5> #
|  6> ! RHF AllowRHF def2-SVP def2/J  NoMulliken NoLoewdin NoMayer NoPrintMOs
|  7>
|  8> %output print[p_atomdensfit] 2 end
|  9>
| 10> %scf
| 11>   guess hcore
| 12>   maxiter 1000
| 13>   maxdisk 500000
| 14>   SCFMode Conventional
| 15>   lshift 1.000000
| 16>   hftyp rohf
| 17>   rohf_case sahf
| 18>   rohf_numop   2
| 19>   rohf_norb[1] 3
| 20>   rohf_nel[1]  5
| 21> end
| 22>
| 23> %basis
| 24>   NewECP 53
| 25>     N_core 28
| 26>     lmax g
| 27>     s 3
| 28>       1      40.0333760000     49.9896490000  2
| 29>       2      17.3005760000    281.0065560000  2
| 30>       3       8.8517200000     61.4167390000  2
| 31>     p 4
| 32>       1      15.7201410000     67.4162390000  2
| 33>       2      15.2082220000    134.8076960000  2
| 34>       3       8.2941860000     14.5665480000  2
| 35>       4       7.7539490000     28.9684220000  2
| 36>     d 4
| 37>       1      13.8177510000     35.5387560000  2
| 38>       2      13.5878050000     53.3397590000  2
| 39>       3       6.9476300000      9.7164660000  2
| 40>       4       6.9600990000     14.9775000000  2
| 41>     f 4
| 42>       1      18.5229500000    -20.1766180000  2
| 43>       2      18.2510350000    -26.0880770000  2
| 44>       3       7.5579010000     -0.2204340000  2
| 45>       4       7.5974040000     -0.2216460000  2
| 46>     g 1
| 47>       1       1.0000000000      0.0000000000  2
| 48>   end
| 49>   NewGTO 53
| 50>     s 10
| 51>      1   16900.0000000000      0.0000431366
| 52>      2    2541.3900000000      0.0003170542
| 53>      3     574.4130000000      0.0013091964
| 54>      4     150.9450000000      0.0027995666
| 55>      5      29.1631000000     -0.0578278745
| 56>      6      18.2196000000      0.3708854247
| 57>      7      11.3365000000     -0.3962389732
| 58>      8       6.9240800000     -0.5811624284
| 59>      9       2.5098100000      0.7652080535
| 60>     10       1.3511300000      0.6773107195
| 61>     s 10
| 62>      1   16900.0000000000      0.0000254381
| 63>      2    2541.3900000000      0.0001901163
| 64>      3     574.4130000000      0.0007925975
| 65>      4     150.9450000000      0.0016641869
| 66>      5      29.1631000000     -0.0304199447
| 67>      6      18.2196000000      0.2111468965
| 68>      7      11.3365000000     -0.2678925914
| 69>      8       6.9240800000     -0.2893944756
| 70>      9       2.5098100000      0.5535316010
| 71>     10       1.3511300000      0.7157275702
| 72>     s 1
| 73>      1       0.6163790000      1.0000000000
| 74>     s 1
| 75>      1       0.3834550000      1.0000000000
| 76>     s 1
| 77>      1       0.1800560000      1.0000000000
| 78>     s 1
| 79>      1       0.0823270000      1.0000000000
| 80>     s 1
| 81>      1       0.0331000000      1.0000000000
| 82>     p 7
| 83>      1     649.1590000000      0.0001066480
| 84>      2     148.0870000000      0.0007061223
| 85>      3      20.1018000000      0.0508812224
| 86>      4      10.4466000000     -0.2584598603
| 87>      5       6.3588300000     -0.0055681507
| 88>      6       3.0484600000      0.5769401194
| 89>      7       1.5595000000      0.5681455846
| 90>     p 7
| 91>      1     649.1590000000     -0.0000771964
| 92>      2     148.0870000000     -0.0006103343
| 93>      3      20.1018000000     -0.0388346327
| 94>      4      10.4466000000      0.2168978647
| 95>      5       6.3588300000     -0.0377659445
| 96>      6       3.0484600000     -0.5012533536
| 97>      7       1.5595000000     -0.5984677919
| 98>     p 1
| 99>      1       0.7689110000      1.0000000000
|100>     p 1
|101>      1       0.3548140000      1.0000000000
|102>     p 1
|103>      1       0.1547660000      1.0000000000
|104>     p 1
|105>      1       0.0646990000      1.0000000000
|106>     p 1
|107>      1       0.0257000000      1.0000000000
|108>   end
|109>   NewAuxGTO 53
|110>     S 1
|111>      1 1310.72 1.0
|112>     S 1
|113>      1  655.36 1.0
|114>     S 1
|115>      1  327.68 1.0
|116>     S 1
|117>      1  163.84 1.0
|118>     S 1
|119>      1   81.82 1.0
|120>     S 1
|121>      1   40.96 1.0
|122>     S 1
|123>      1   20.48 1.0
|124>     S 1
|125>      1   10.24 1.0
|126>     S 1
|127>      1    5.12 1.0
|128>     S 1
|129>      1    2.56 1.0
|130>     S 1
|131>      1    1.28 1.0
|132>     S 1
|133>      1    0.64 1.0
|134>     S 1
|135>      1    0.32 1.0
|136>     S 1
|137>      1    0.16 1.0
|138>     S 1
|139>      1    0.08 1.0
|140>     S 1
|141>      1    0.04 1.0
|142>     S 1
|143>      1    0.02 1.0
|144>     S 1
|145>      1    0.01 1.0
|146>   end
|147> end
|148>
|149> * xyz 0 2
|150> 53  0.0 0.0 0.0
|151> *
|152>
|153>
|154>                          ****END OF INPUT****

CARTESIAN COORDINATES (ANGSTROEM)
---------------------------------
  I      0.000000    0.000000    0.000000

 Total Charge           Charge          ....    0
 Multiplicity           Mult            ....    2
 Number of Electrons    NEL             ....   25
 Basis Dimension        Dim             ....   28

ORBITAL ENERGIES
----------------

  NO   OCC          E(Eh)            E(eV)
   0   2.0000     -12.516366      -340.5876
   1   2.0000     -10.033028      -273.0126
   2   2.0000     -10.033028      -273.0126
   3   2.0000     -10.029867      -272.9266
   4   2.0000      -3.396415       -92.4212
   5   2.0000      -2.478187       -67.4349
   6   2.0000      -2.478187       -67.4349
   7   2.0000      -2.472965       -67.2928
   8   2.0000      -0.731460       -19.9040
   9   2.0000      -0.440529       -11.9874
  10   1.6667      -0.443917       -12.0796
  11   1.6667      -0.443917       -12.0796
  12   1.6667      -0.092843        -2.5264
  13   0.0000       0.017222         0.4686
  14   0.0000       0.017222         0.4686
  15   0.0000       0.019540         0.5317
  16   0.0000       0.281978         7.6730
  17   0.0000       0.281978         7.6730

CleanUpVectors: The p-vectors have cracked symmetry
CleanUpVectors: The p-vectors have cracked symmetry
CleanUpVectors: The p-vectors have cracked symmetry
CleanUpVectors: The p-vectors have cracked symmetry
CleanUpVectors: The p-vectors have cracked symmetry
CleanUpVectors: The p-vectors have cracked symmetry
CleanUpVectors: The p-vectors have cracked symmetry
CleanUpVectors: The p-vectors have cracked symmetry
CleanUpVectors: The p-vectors have cracked symmetry
CleanUpVectors: The p-vectors have cracked symmetry
CleanUpVectors: The p-vectors have cracked symmetry
CleanUpVectors: The p-vectors have cracked symmetry
CleanUpVectors: The p-vectors have cracked symmetry
CleanUpVectors: The p-vectors have cracked symmetry
CleanUpVectors: The p-vectors have cracked symmetry
CleanUpVectors: The p-vectors have cracked symmetry
CleanUpVectors: The p-vectors have cracked symmetry
CleanUpVectors: The p-vectors have cracked symmetry
CleanUpVectors: The p-vectors have cracked symmetry
CleanUpVectors: The p-vectors have cracked symmetry
--------------------------
ATOM BASIS FOR ELEMENT I
--------------------------
 NewGTO I
 S 25
    1      16900.000000000000         0.000032512862
    2       2541.390000000000         0.000238969681
    3        574.413000000000         0.000986765814
    4        150.945000000000         0.002110085711
    5         29.163100000000        -0.043585950648
    6         18.219600000000         0.279543281798
    7         11.336500000000        -0.298652725527
    8          6.924080000000        -0.438032992599
    9          2.509810000000         0.576751622707
   10          1.351130000000         0.510501758001
   11      16900.000000000000         0.000011946695
   12       2541.390000000000         0.000089285815
   13        574.413000000000         0.000372233806
   14        150.945000000000         0.000781565199
   15         29.163100000000        -0.014286358184
   16         18.219600000000         0.099162579767
   17         11.336500000000        -0.125812507330
   18          6.924080000000        -0.135910606533
   19          2.509810000000         0.259959404791
   20          1.351130000000         0.336132775086
   21          0.616379000000        -0.615511065479
   22          0.383455000000         0.551951284296
   23          0.180056000000        -0.227775423462
   24          0.082327000000         0.085758259257
   25          0.033100000000        -0.019013693459
 P 44
    1        649.159000000000        -0.000065912886
    2        148.087000000000        -0.000436412861
    3         20.101800000000        -0.031446705286
    4         10.446600000000         0.159738910974
    5          6.358830000000         0.003441348022
    6          3.048460000000        -0.356572917215
    7          1.559500000000        -0.351137530034
    8        649.159000000000        -0.000013936418
    9        148.087000000000        -0.000092273795
   10         20.101800000000        -0.006648994773
   11         10.446600000000         0.033774704679
   12          6.358830000000         0.000727628055
   13          3.048460000000        -0.075392682360
   14          1.559500000000        -0.074243440789
   15        649.159000000000        -0.000002501304
   16        148.087000000000        -0.000016561272
   17         20.101800000000        -0.001193359548
   18         10.446600000000         0.006061873663
   19          6.358830000000         0.000130594461
   20          3.048460000000        -0.013531455565
   21          1.559500000000        -0.013325190040
   22        649.159000000000        -0.000034045733
   23        148.087000000000        -0.000269174193
   24         20.101800000000        -0.017127139885
   25         10.446600000000         0.095657916946
   26          6.358830000000        -0.016655819030
   27          3.048460000000        -0.221066499358
   28          1.559500000000        -0.263940737321
   29        649.159000000000        -0.000007198525
   30        148.087000000000        -0.000056913365
   31         20.101800000000        -0.003621309849
   32         10.446600000000         0.020225616134
   33          6.358830000000        -0.003521655215
   34          3.048460000000        -0.046741621592
   35          1.559500000000        -0.055806818773
   36        649.159000000000        -0.000001291989
   37        148.087000000000        -0.000010214793
   38         20.101800000000        -0.000649951584
   39         10.446600000000         0.003630087396
   40          6.358830000000        -0.000632065601
   41          3.048460000000        -0.008389171944
   42          1.559500000000        -0.010016190760
   43          0.768911000000         0.164908705373
   44          0.768911000000         0.034867790127
 S 25
    1      16900.000000000000        -0.000035306470
    2       2541.390000000000        -0.000259502713
    3        574.413000000000        -0.001071551860
    4        150.945000000000        -0.002291390961
    5         29.163100000000         0.047330993644
    6         18.219600000000        -0.303562526389
    7         11.336500000000         0.324313914077
    8          6.924080000000         0.475670175366
    9          2.509810000000        -0.626307949744
   10          1.351130000000        -0.554365686730
   11      16900.000000000000         0.000068582866
   12       2541.390000000000         0.000512566612
   13        574.413000000000         0.002136897339
   14        150.945000000000         0.004486762270
   15         29.163100000000        -0.082014261817
   16         18.219600000000         0.569266546081
   17         11.336500000000        -0.722256839929
   18          6.924080000000        -0.780227397658
   19          2.509810000000         1.492359243120
   20          1.351130000000         1.929650724573
   21          0.616379000000        -2.767298620669
   22          0.383455000000         1.017770490244
   23          0.180056000000        -0.615101484903
   24          0.082327000000         0.224022149312
   25          0.033100000000        -0.050107728874
 P 44
    1        649.159000000000         0.000085347717
    2        148.087000000000         0.000565091950
    3         20.101800000000         0.040718964974
    4         10.446600000000        -0.206838937871
    5          6.358830000000        -0.004456051223
    6          3.048460000000         0.461710694160
    7          1.559500000000         0.454672648736
    8        649.159000000000         0.000018053268
    9        148.087000000000         0.000119531682
   10         20.101800000000         0.008613122787
   11         10.446600000000        -0.043751828420
   12          6.358830000000        -0.000942571020
   13          3.048460000000         0.097663850330
   14          1.559500000000         0.096175120215
   15        649.159000000000         0.000000000566
   16        148.087000000000         0.000000003749
   17         20.101800000000         0.000000270166
   18         10.446600000000        -0.000001372352
   19          6.358830000000        -0.000000029565
   20          3.048460000000         0.000003063396
   21          1.559500000000         0.000003016699
   22        649.159000000000        -0.000141335684
   23        148.087000000000        -0.001117435730
   24         20.101800000000        -0.071100716646
   25         10.446600000000         0.397109295158
   26          6.358830000000        -0.069144099791
   27          3.048460000000        -0.917723953709
   28          1.559500000000        -1.095709832573
   29        649.159000000000        -0.000029896182
   30        148.087000000000        -0.000236366793
   31         20.101800000000        -0.015039655431
   32         10.446600000000         0.083998970042
   33          6.358830000000        -0.014625779950
   34          3.048460000000        -0.194122544687
   35          1.559500000000        -0.231771198820
   36        649.159000000000        -0.000000000938
   37        148.087000000000        -0.000000007414
   38         20.101800000000        -0.000000471745
   39         10.446600000000         0.000002634773
   40          6.358830000000        -0.000000458763
   41          3.048460000000        -0.000006088990
   42          1.559500000000        -0.000007269905
   43          0.768911000000         1.233989228070
   44          0.768911000000         0.261020896426
 S 25
    1      16900.000000000000        -0.000016952678
    2       2541.390000000000        -0.000124602254
    3        574.413000000000        -0.000514513995
    4        150.945000000000        -0.001100229266
    5         29.163100000000         0.022726346255
    6         18.219600000000        -0.145757917883
    7         11.336500000000         0.155721858751
    8          6.924080000000         0.228396749708
    9          2.509810000000        -0.300726653564
   10          1.351130000000        -0.266183014105
   11      16900.000000000000         0.000024634039
   12       2541.390000000000         0.000184107004
   13        574.413000000000         0.000767544663
   14        150.945000000000         0.001611584409
   15         29.163100000000        -0.029458415167
   16         18.219600000000         0.204472854887
   17         11.336500000000        -0.259424902164
   18          6.924080000000        -0.280247143555
   19          2.509810000000         0.536035284454
   20          1.351130000000         0.693104478571
   21          0.616379000000        -1.466004707009
   22          0.383455000000         0.794583866964
   23          0.180056000000        -0.385848024008
   24          0.082327000000         2.163221009517
   25          0.033100000000        -2.160411347578
 S 25
    1      16900.000000000000        -0.000019658255
    2       2541.390000000000        -0.000144488259
    3        574.413000000000        -0.000596628302
    4        150.945000000000        -0.001275821311
    5         29.163100000000         0.026353377224
    6         18.219600000000        -0.169020279382
    7         11.336500000000         0.180574424046
    8          6.924080000000         0.264847927345
    9          2.509810000000        -0.348721385027
   10          1.351130000000        -0.308664723427
   11      16900.000000000000         0.000031182673
   12       2541.390000000000         0.000233049420
   13        574.413000000000         0.000971586275
   14        150.945000000000         0.002040002840
   15         29.163100000000        -0.037289545767
   16         18.219600000000         0.258829262785
   17         11.336500000000        -0.328389586052
   18          6.924080000000        -0.354747145306
   19          2.509810000000         0.678533185143
   20          1.351130000000         0.877357150026
   21          0.616379000000        -0.080002505710
   22          0.383455000000        -4.368131187154
   23          0.180056000000         8.583373555961
   24          0.082327000000        -7.062346780012
   25          0.033100000000         2.325457116179
 S 25
    1      16900.000000000000         0.000123905463
    2       2541.390000000000         0.000910705701
    3        574.413000000000         0.003760532505
    4        150.945000000000         0.008041468186
    5         29.163100000000        -0.166104643864
    6         18.219600000000         1.065330377727
    7         11.336500000000        -1.138155847809
    8          6.924080000000        -1.669329523717
    9          2.509810000000         2.197981722615
   10          1.351130000000         1.945505637562
   11      16900.000000000000        -0.000158612897
   12       2541.390000000000        -0.001185422537
   13        574.413000000000        -0.004942043050
   14        150.945000000000        -0.010376620294
   15         29.163100000000         0.189675940553
   16         18.219600000000        -1.316553550099
   17         11.336500000000         1.670377107592
   18          6.924080000000         1.804446717170
   19          2.509810000000        -3.451407557810
   20          1.351130000000        -4.462739870061
   21          0.616379000000        17.119656613949
   22          0.383455000000       -22.597559781058
   23          0.180056000000        13.037499557065
   24          0.082327000000        -5.468245792590
   25          0.033100000000         1.198033699792
 P 44
    1        649.159000000000        -0.000018179043
    2        148.087000000000        -0.000120364446
    3         20.101800000000        -0.008673129473
    4         10.446600000000         0.044056642632
    5          6.358830000000         0.000949137809
    6          3.048460000000        -0.098344263714
    7          1.559500000000        -0.096845161778
    8        649.159000000000         0.000085942319
    9        148.087000000000         0.000569028842
   10         20.101800000000         0.041002646536
   11         10.446600000000        -0.208279946822
   12          6.358830000000        -0.004487095715
   13          3.048460000000         0.464927347900
   14          1.559500000000         0.457840269704
   15        649.159000000000         0.000000201923
   16        148.087000000000         0.000001336942
   17         20.101800000000         0.000096336338
   18         10.446600000000        -0.000489356882
   19          6.358830000000        -0.000010542499
   20          3.048460000000         0.001092353829
   21          1.559500000000         0.001075702632
   22        649.159000000000         0.000030050724
   23        148.087000000000         0.000237588642
   24         20.101800000000         0.015117399854
   25         10.446600000000        -0.084433185540
   26          6.358830000000         0.014701384928
   27          3.048460000000         0.195126021482
   28          1.559500000000         0.232969292634
   29        649.159000000000        -0.000142066279
   30        148.087000000000        -0.001123212002
   31         20.101800000000        -0.071468251993
   32         10.446600000000         0.399162041031
   33          6.358830000000        -0.069501520953
   34          3.048460000000        -0.922467872026
   35          1.559500000000        -1.101373799307
   36        649.159000000000        -0.000000333787
   37        148.087000000000        -0.000002639004
   38         20.101800000000        -0.000167915738
   39         10.446600000000         0.000937837247
   40          6.358830000000        -0.000163294874
   41          3.048460000000        -0.002167352204
   42          1.559500000000        -0.002587694384
   43          0.768911000000        -0.262875775587
   44          0.768911000000         1.242758169673
 P 44
    1        649.159000000000         0.000060016903
    2        148.087000000000         0.000397375231
    3         20.101800000000         0.028633761442
    4         10.446600000000        -0.145450082235
    5          6.358830000000        -0.003133515495
    6          3.048460000000         0.324677060932
    7          1.559500000000         0.319727875367
    8        649.159000000000         0.000012695218
    9        148.087000000000         0.000084055742
   10         20.101800000000         0.006056824588
   11         10.446600000000        -0.030766675072
   12          6.358830000000        -0.000662824328
   13          3.048460000000         0.068678088618
   14          1.559500000000         0.067631200353
   15        649.159000000000        -0.000000033015
   16        148.087000000000        -0.000000218594
   17         20.101800000000        -0.000015751263
   18         10.446600000000         0.000080011231
   19          6.358830000000         0.000001723728
   20          3.048460000000        -0.000178602933
   21          1.559500000000        -0.000175880415
   22        649.159000000000        -0.000084828885
   23        148.087000000000        -0.000670678660
   24         20.101800000000        -0.042674251501
   25         10.446600000000         0.238342772537
   26          6.358830000000        -0.041499901034
   27          3.048460000000        -0.550812771743
   28          1.559500000000        -0.657638898349
   29        649.159000000000        -0.000017943632
   30        148.087000000000        -0.000141866901
   31         20.101800000000        -0.009026772689
   32         10.446600000000         0.050416022637
   33          6.358830000000        -0.008778365409
   34          3.048460000000        -0.116511983449
   35          1.559500000000        -0.139108634314
   36        649.159000000000         0.000000046664
   37        148.087000000000         0.000000368936
   38         20.101800000000         0.000023474854
   39         10.446600000000        -0.000131110951
   40          6.358830000000         0.000022828850
   41          3.048460000000         0.000302998852
   42          1.559500000000         0.000361763273
   43          0.768911000000         0.916536369465
   44          0.768911000000         0.193872538525
 P 44
    1        649.159000000000        -0.000004416462
    2        148.087000000000        -0.000029241637
    3         20.101800000000        -0.002107071569
    4         10.446600000000         0.010703229947
    5          6.358830000000         0.000230585892
    6          3.048460000000        -0.023891999154
    7          1.559500000000        -0.023527803614
    8        649.159000000000         0.000020879040
    9        148.087000000000         0.000138241277
   10         20.101800000000         0.009961284566
   11         10.446600000000        -0.050600046461
   12          6.358830000000        -0.001090106153
   13          3.048460000000         0.112950602129
   14          1.559500000000         0.111228849788
   15        649.159000000000         0.000000049056
   16        148.087000000000         0.000000324800
   17         20.101800000000         0.000023404189
   18         10.446600000000        -0.000118885574
   19          6.358830000000        -0.000002561221
   20          3.048460000000         0.000265379146
   21          1.559500000000         0.000261333863
   22        649.159000000000         0.000006094434
   23        148.087000000000         0.000048184141
   24         20.101800000000         0.003065882777
   25         10.446600000000        -0.017123463812
   26          6.358830000000         0.002981512911
   27          3.048460000000         0.039572513417
   28          1.559500000000         0.047247314267
   29        649.159000000000        -0.000028811738
   30        148.087000000000        -0.000227792899
   31         20.101800000000        -0.014494111751
   32         10.446600000000         0.080952018108
   33          6.358830000000        -0.014095249058
   34          3.048460000000        -0.187081005215
   35          1.559500000000        -0.223364004038
   36        649.159000000000        -0.000000067694
   37        148.087000000000        -0.000000535203
   38         20.101800000000        -0.000034054135
   39         10.446600000000         0.000190197990
   40          6.358830000000        -0.000033117001
   41          3.048460000000        -0.000439549648
   42          1.559500000000        -0.000524797102
   43          0.768911000000        -0.073567630263
   44          0.768911000000         0.347794593577
 P 44
    1        649.159000000000        -0.000008822696
    2        148.087000000000        -0.000058415558
    3         20.101800000000        -0.004209263772
    4         10.446600000000         0.021381674323
    5          6.358830000000         0.000460637813
    6          3.048460000000        -0.047728671380
    7          1.559500000000        -0.047001123672
    8        649.159000000000         0.000041709730
    9        148.087000000000         0.000276162428
   10         20.101800000000         0.019899501692
   11         10.446600000000        -0.101082917918
   12          6.358830000000        -0.002177687938
   13          3.048460000000         0.225639643484
   14          1.559500000000         0.222200125881
   15        649.159000000000         0.000000097998
   16        148.087000000000         0.000000648848
   17         20.101800000000         0.000046754180
   18         10.446600000000        -0.000237495843
   19          6.358830000000        -0.000005116511
   20          3.048460000000         0.000530143752
   21          1.559500000000         0.000522062553
   22        649.159000000000         0.000012254577
   23        148.087000000000         0.000096887788
   24         20.101800000000         0.006164820887
   25         10.446600000000        -0.034431547145
   26          6.358830000000         0.005995171508
   27          3.048460000000         0.079571684580
   28          1.559500000000         0.095004033442
   29        649.159000000000        -0.000057934114
   30        148.087000000000        -0.000458041785
   31         20.101800000000        -0.029144494219
   32         10.446600000000         0.162776834087
   33          6.358830000000        -0.028342468426
   34          3.048460000000        -0.376179055923
   35          1.559500000000        -0.449136244855
   36        649.159000000000        -0.000000136117
   37        148.087000000000        -0.000001076176
   38         20.101800000000        -0.000068475430
   39         10.446600000000         0.000382446631
   40          6.358830000000        -0.000066591058
   41          3.048460000000        -0.000883838376
   42          1.559500000000        -0.001055252394
   43          0.768911000000        -0.109285338987
   44          0.768911000000         0.516651819844
 P 44
    1        649.159000000000        -0.000038198765
    2        148.087000000000        -0.000252916131
    3         20.101800000000        -0.018224437766
    4         10.446600000000         0.092574144582
    5          6.358830000000         0.001994378498
    6          3.048460000000        -0.206646161482
    7          1.559500000000        -0.203496169313
    8        649.159000000000         0.000180586540
    9        148.087000000000         0.001195673460
   10         20.101800000000         0.086156926677
   11         10.446600000000        -0.437648825687
   12          6.358830000000        -0.009428522527
   13          3.048460000000         0.976929901045
   14          1.559500000000         0.962038157998
   15        649.159000000000         0.000000424291
   16        148.087000000000         0.000002809253
   17         20.101800000000         0.000202427001
   18         10.446600000000        -0.001028262529
   19          6.358830000000        -0.000022152456
   20          3.048460000000         0.002295311564
   21          1.559500000000         0.002260323188
   22        649.159000000000         0.000048829704
   23        148.087000000000         0.000386060010
   24         20.101800000000         0.024564404608
   25         10.446600000000        -0.137196273960
   26          6.358830000000         0.023888418059
   27          3.048460000000         0.317062099801
   28          1.559500000000         0.378553985525
   29        649.159000000000        -0.000230844827
   30        148.087000000000        -0.001825117702
   31         20.101800000000        -0.116129432023
   32         10.446600000000         0.648602138952
   33          6.358830000000        -0.112933672335
   34          3.048460000000        -1.498926684924
   35          1.559500000000        -1.789632601765
   36        649.159000000000        -0.000000542373
   37        148.087000000000        -0.000004288142
   38         20.101800000000        -0.000272847855
   39         10.446600000000         0.001523900526
   40          6.358830000000        -0.000265339370
   41          3.048460000000        -0.003521750894
   42          1.559500000000        -0.004204768838
   43          0.768911000000        -0.838118652429
   44          0.768911000000         3.962247187687
 P 44
    1        649.159000000000         0.000563618433
    2        148.087000000000         0.003731748786
    3         20.101800000000         0.268899509223
    4         10.446600000000        -1.365920988337
    5          6.358830000000        -0.029426828207
    6          3.048460000000         3.049040640924
    7          1.559500000000         3.002562864251
    8        649.159000000000        -0.002664533754
    9        148.087000000000        -0.017642025191
   10         20.101800000000        -1.271235602311
   11         10.446600000000         6.457458384130
   12          6.358830000000         0.139116771866
   13          3.048460000000       -14.414488991970
   14          1.559500000000       -14.194763025962
   15        649.159000000000        -0.000006260363
   16        148.087000000000        -0.000041450210
   17         20.101800000000        -0.002986787611
   18         10.446600000000         0.015171897848
   19          6.358830000000         0.000326856996
   20          3.048460000000        -0.033867063713
   21          1.559500000000        -0.033350814175
   22        649.159000000000        -0.000406054565
   23        148.087000000000        -0.003210370287
   24         20.101800000000        -0.204270923233
   25         10.446600000000         1.140886986410
   26          6.358830000000        -0.198649602517
   27          3.048460000000        -2.636602387984
   28          1.559500000000        -3.147952224005
   29        649.159000000000         0.001919642849
   30        148.087000000000         0.015177182799
   31         20.101800000000         0.965700796111
   32         10.446600000000        -5.393599116377
   33          6.358830000000         0.939125727061
   34          3.048460000000        12.464666947262
   35          1.559500000000        14.882098346318
   36        649.159000000000         0.000004510230
   37        148.087000000000         0.000035659025
   38         20.101800000000         0.002268928882
   39         10.446600000000        -0.012672344127
   40          6.358830000000         0.002206490348
   41          3.048460000000         0.029285926813
   42          1.559500000000         0.034965719087
   43          0.768911000000        -0.086127434047
   44          0.768911000000         0.407171663555
 end
  // -----------------------------------------------
  // The basis set
  // -----------------------------------------------
  BAS[ATNO] = new BFNGauss[NSH];
  // Basis function   1 L = s
  InitBFNGauss(BAS[ATNO][  0]);
  BAS[ATNO][  0].l  = 0;
  BAS[ATNO][  0].ng = 25;
  BAS[ATNO][  0].a[  0] =     16900.000000000000;     BAS[ATNO][  0].d[  0] =        -0.000032512862;
  BAS[ATNO][  0].a[  1] =      2541.390000000000;     BAS[ATNO][  0].d[  1] =        -0.000238969681;
  BAS[ATNO][  0].a[  2] =       574.413000000000;     BAS[ATNO][  0].d[  2] =        -0.000986765814;
  BAS[ATNO][  0].a[  3] =       150.945000000000;     BAS[ATNO][  0].d[  3] =        -0.002110085711;
  BAS[ATNO][  0].a[  4] =        29.163100000000;     BAS[ATNO][  0].d[  4] =         0.043585950648;
  BAS[ATNO][  0].a[  5] =        18.219600000000;     BAS[ATNO][  0].d[  5] =        -0.279543281798;
  BAS[ATNO][  0].a[  6] =        11.336500000000;     BAS[ATNO][  0].d[  6] =         0.298652725527;
  BAS[ATNO][  0].a[  7] =         6.924080000000;     BAS[ATNO][  0].d[  7] =         0.438032992599;
  BAS[ATNO][  0].a[  8] =         2.509810000000;     BAS[ATNO][  0].d[  8] =        -0.576751622707;
  BAS[ATNO][  0].a[  9] =         1.351130000000;     BAS[ATNO][  0].d[  9] =        -0.510501758001;
  BAS[ATNO][  0].a[ 10] =     16900.000000000000;     BAS[ATNO][  0].d[ 10] =        -0.000011946695;
  BAS[ATNO][  0].a[ 11] =      2541.390000000000;     BAS[ATNO][  0].d[ 11] =        -0.000089285815;
  BAS[ATNO][  0].a[ 12] =       574.413000000000;     BAS[ATNO][  0].d[ 12] =        -0.000372233806;
  BAS[ATNO][  0].a[ 13] =       150.945000000000;     BAS[ATNO][  0].d[ 13] =        -0.000781565199;
  BAS[ATNO][  0].a[ 14] =        29.163100000000;     BAS[ATNO][  0].d[ 14] =         0.014286358184;
  BAS[ATNO][  0].a[ 15] =        18.219600000000;     BAS[ATNO][  0].d[ 15] =        -0.099162579767;
  BAS[ATNO][  0].a[ 16] =        11.336500000000;     BAS[ATNO][  0].d[ 16] =         0.125812507330;
  BAS[ATNO][  0].a[ 17] =         6.924080000000;     BAS[ATNO][  0].d[ 17] =         0.135910606533;
  BAS[ATNO][  0].a[ 18] =         2.509810000000;     BAS[ATNO][  0].d[ 18] =        -0.259959404791;
  BAS[ATNO][  0].a[ 19] =         1.351130000000;     BAS[ATNO][  0].d[ 19] =        -0.336132775086;
  BAS[ATNO][  0].a[ 20] =         0.616379000000;     BAS[ATNO][  0].d[ 20] =         0.615511065479;
  BAS[ATNO][  0].a[ 21] =         0.383455000000;     BAS[ATNO][  0].d[ 21] =        -0.551951284296;
  BAS[ATNO][  0].a[ 22] =         0.180056000000;     BAS[ATNO][  0].d[ 22] =         0.227775423462;
  BAS[ATNO][  0].a[ 23] =         0.082327000000;     BAS[ATNO][  0].d[ 23] =        -0.085758259257;
  BAS[ATNO][  0].a[ 24] =         0.033100000000;     BAS[ATNO][  0].d[ 24] =         0.019013693459;

FINAL SINGLE POINT ENERGY      -256.777958304787

DIPOLE MOMENT
-------------
                                X             Y             Z
Electronic contribution:     -0.00000      -0.00000       0.00000
Nuclear contribution   :      0.00000       0.00000       0.00000
                        -----------------------------------------
Total Dipole Moment    :     -0.00000      -0.00000       0.00000
                        -----------------------------------------
Magnitude (a.u.)       :      0.00000
Magnitude (Debye)      :      0.00000

Rotational constants in cm-1:     0.000000     0.000000     0.000000
Rotational constants in MHz :     0.000000     0.000000     0.000000

                             ****ORCA TERMINATED NORMALLY****
TOTAL RUN TIME: 0 days 0 hours 0 minutes 1 seconds 1 msec
