                         Program Version 4.2.0 -  RELEASE  -
|  1> #
|  2> # 53_I CCSD(T)/aug-cc-pVQZ-PP
|  3> #
|  4> ! CCSD(T) aug-cc-pVQZ-PP tightscf
|  5>
|  6> *xyz 0 2
|  7>  I 0.0 0.0 0.0
|  8> *
|  9>
| 10> %maxcore 5000
| 11>
| 12> %pal
| 13> nprocs 24
| 14> end
| 15>
| 16>
| 17>                          ****END OF INPUT****

CARTESIAN COORDINATES (ANGSTROEM)
---------------------------------
  I      0.000000    0.000000    0.000000

 Total Charge           Charge          ....    0
 Multiplicity           Mult            ....    2
 Number of Electrons    NEL             ....   25
 Basis Dimension        Dim             ....   92

ORBITAL ENERGIES
----------------
                 SPIN UP ORBITALS
  NO   OCC          E(Eh)            E(eV)
   0   1.0000      -7.749403      -210.8720
   1   1.0000      -5.589545      -152.0992
   2   1.0000      -5.566666      -151.4767
   3   1.0000      -5.566666      -151.4767
   4   1.0000      -2.313308       -62.9483
   5   1.0000      -2.307080       -62.7788
   6   1.0000      -2.307080       -62.7788
   7   1.0000      -2.288627       -62.2767
   8   1.0000      -2.288627       -62.2767
   9   1.0000      -0.922725       -25.1086
  10   1.0000      -0.459994       -12.5171
  11   1.0000      -0.399642       -10.8748
  12   1.0000      -0.399642       -10.8748
  13   0.0000       0.056096         1.5265
  14   0.0000       0.059985         1.6323
  15   0.0000       0.065015         1.7691
  16   0.0000       0.065015         1.7691
  17   0.0000       0.154872         4.2143

                 SPIN DOWN ORBITALS
  NO   OCC          E(Eh)            E(eV)
   0   1.0000      -7.741624      -210.6603
   1   1.0000      -5.568232      -151.5193
   2   1.0000      -5.565636      -151.4486
   3   1.0000      -5.565636      -151.4486
   4   1.0000      -2.301382       -62.6238
   5   1.0000      -2.297998       -62.5317
   6   1.0000      -2.297998       -62.5317
   7   1.0000      -2.288356       -62.2693
   8   1.0000      -2.288356       -62.2693
   9   1.0000      -0.832930       -22.6652
  10   1.0000      -0.382529       -10.4091
  11   1.0000      -0.382529       -10.4091
  12   0.0000      -0.052054        -1.4165
  13   0.0000       0.058897         1.6027
  14   0.0000       0.065386         1.7792
  15   0.0000       0.065386         1.7792
  16   0.0000       0.068778         1.8715

E(0)                                       ...   -294.662493751
E(0)                                       ...   -294.662493751
E(CORR)                                    ...     -0.268899334
E(TOT)                                     ...   -294.931393085
E(CCSD(T))                                 ...   -294.939975370

MULLIKEN ATOMIC CHARGES AND SPIN DENSITIES
------------------------------------------
   0 I :    0.000000    1.000000
Sum of atomic charges       :    0.0000000

LOEWDIN ATOMIC CHARGES AND SPIN DENSITIES
-----------------------------------------
   0 I :    0.000000    1.000000

FINAL SINGLE POINT ENERGY      -294.939975370269

DIPOLE MOMENT
-------------
                                X             Y             Z
Electronic contribution:     -0.00000      -0.00000       0.00000
Nuclear contribution   :      0.00000       0.00000       0.00000
                        -----------------------------------------
Total Dipole Moment    :     -0.00000      -0.00000       0.00000
                        -----------------------------------------
Magnitude (a.u.)       :      0.00000
Magnitude (Debye)      :      0.00000

Rotational constants in cm-1:     0.000000     0.000000     0.000000
Rotational constants in MHz :     0.000000     0.000000     0.000000

                             ****ORCA TERMINATED NORMALLY****
TOTAL RUN TIME: 0 days 0 hours 0 minutes 21 seconds 829 msec
