                         Program Version 4.2.0 -  RELEASE  -
|  1> #
|  2> # 54_Xe CCSD(T)/aug-cc-pVQZ-PP
|  3> #
|  4> ! CCSD(T) aug-cc-pVQZ-PP tightscf
|  5>
|  6> *xyz 0 1
|  7>  Xe 0.0 0.0 0.0
|  8> *
|  9>
| 10> %maxcore 5000
| 11>
| 12> %pal
| 13> nprocs 24
| 14> end
| 15>
| 16>
| 17>                          ****END OF INPUT****

CARTESIAN COORDINATES (ANGSTROEM)
---------------------------------
  Xe     0.000000    0.000000    0.000000

 Total Charge           Charge          ....    0
 Multiplicity           Mult            ....    1
 Number of Electrons    NEL             ....   26
 Basis Dimension        Dim             ....   92

ORBITAL ENERGIES
----------------

  NO   OCC          E(Eh)            E(eV)
   0   2.0000      -8.399983      -228.5752
   1   2.0000      -6.133652      -166.9052
   2   2.0000      -6.133652      -166.9052
   3   2.0000      -6.133652      -166.9052
   4   2.0000      -2.663987       -72.4908
   5   2.0000      -2.663987       -72.4908
   6   2.0000      -2.663987       -72.4908
   7   2.0000      -2.663987       -72.4908
   8   2.0000      -2.663987       -72.4908
   9   2.0000      -1.009628       -27.4734
  10   2.0000      -0.456233       -12.4147
  11   2.0000      -0.456233       -12.4147
  12   2.0000      -0.456233       -12.4147
  13   0.0000       0.064782         1.7628
  14   0.0000       0.070783         1.9261
  15   0.0000       0.070783         1.9261
  16   0.0000       0.070783         1.9261
  17   0.0000       0.169229         4.6049

E(0)                                       ...   -328.299143215
E(0)                                       ...   -328.299143215
E(CORR)                                    ...     -0.308178096
E(TOT)                                     ...   -328.607321311
E(CCSD(T))                                 ...   -328.617058303

MULLIKEN ATOMIC CHARGES
-----------------------
   0 Xe:    0.000000
Sum of atomic charges:    0.0000000

LOEWDIN ATOMIC CHARGES
----------------------
   0 Xe:    0.000000

FINAL SINGLE POINT ENERGY      -328.617058302666

DIPOLE MOMENT
-------------
                                X             Y             Z
Electronic contribution:      0.00000      -0.00000      -0.00000
Nuclear contribution   :      0.00000       0.00000       0.00000
                        -----------------------------------------
Total Dipole Moment    :      0.00000      -0.00000      -0.00000
                        -----------------------------------------
Magnitude (a.u.)       :      0.00000
Magnitude (Debye)      :      0.00000

Rotational constants in cm-1:     0.000000     0.000000     0.000000
Rotational constants in MHz :     0.000000     0.000000     0.000000

                             ****ORCA TERMINATED NORMALLY****
TOTAL RUN TIME: 0 days 0 hours 0 minutes 12 seconds 442 msec
