                         Program Version 4.2.0 -  RELEASE  -
|  1> # input to generate an atomic fitting density for Xe
|  2> # this file is use internally by ORCA
|  3> #
|  4> # atomic ground state (S=1): 1s2 2s2 2p6 3s2 3p6 4s2 3d10 4p6 5s2 4d10 5p6
|  5> #
|  6> ! RHF AllowRHF def2-SVP def2/J  NoMulliken NoLoewdin NoMayer NoPrintMOs
|  7>
|  8> %output print[p_atomdensfit] 2 end
|  9>
| 10> %scf
| 11>   guess hcore
| 12>   maxiter 1000
| 13>   maxdisk 500000
| 14>   SCFMode Conventional
| 15>   lshift 1.000000
| 16>   hftyp rohf
| 17>   rohf_case sahf
| 18>   rohf_numop   2
| 19>   rohf_norb[1] 3
| 20>   rohf_nel[1]  6
| 21> end
| 22>
| 23> %basis
| 24>   NewECP 54
| 25>     N_core 28
| 26>     lmax g
| 27>     s 3
| 28>       1      40.0051840000     49.9979620000  2
| 29>       2      17.8122140000    281.0133030000  2
| 30>       3       9.3041500000     61.5382550000  2
| 31>     p 4
| 32>       1      15.7017720000     67.4391420000  2
| 33>       2      15.2586080000    134.8747110000  2
| 34>       3       9.2921840000     14.6633000000  2
| 35>       4       8.5590030000     29.3547300000  2
| 36>     d 6
| 37>       1      15.1856000000     35.4369080000  2
| 38>       2      14.2845000000     53.1957720000  2
| 39>       3       7.1218890000      9.0462320000  2
| 40>       4       6.9919630000     13.2236810000  2
| 41>       5       0.6239460000      0.0848530000  2
| 42>       6       0.6472840000      0.0441550000  2
| 43>     f 4
| 44>       1      20.8815570000    -23.0892950000  2
| 45>       2      20.7834430000    -30.0744750000  2
| 46>       3       5.2533890000     -0.2882270000  2
| 47>       4       5.3611880000     -0.3869240000  2
| 48>     g 1
| 49>       1       1.0000000000      0.0000000000  2
| 50>   end
| 51>   NewGTO 54
| 52>     s 10
| 53>      1   18774.3000000000      0.0000796113
| 54>      2    2824.8100000000      0.0005865477
| 55>      3     640.0880000000      0.0024550711
| 56>      4     172.6160000000      0.0052601976
| 57>      5      29.5169000000     -0.0552022207
| 58>      6      18.4448000000      0.4379006218
| 59>      7      11.5238000000     -0.6003930784
| 60>      8       6.6189000000     -0.5603509509
| 61>      9       2.9955200000      0.6983207947
| 62>     10       1.6493700000      0.8375550528
| 63>     s 10
| 64>      1   18774.3000000000      0.0000510915
| 65>      2    2824.8100000000      0.0003718322
| 66>      3     640.0880000000      0.0015739005
| 67>      4     172.6160000000      0.0033322980
| 68>      5      29.5169000000     -0.0266782528
| 69>      6      18.4448000000      0.2432364650
| 70>      7      11.5238000000     -0.3806639536
| 71>      8       6.6189000000     -0.2782426244
| 72>      9       2.9955200000      0.4763511458
| 73>     10       1.6493700000      0.8470224631
| 74>     s 1
| 75>      1       0.8606790000      1.0000000000
| 76>     s 1
| 77>      1       0.4422460000      1.0000000000
| 78>     s 1
| 79>      1       0.2081820000      1.0000000000
| 80>     s 1
| 81>      1       0.0948280000      1.0000000000
| 82>     s 1
| 83>      1       0.0368000000      1.0000000000
| 84>     p 7
| 85>      1     613.3310000000      0.0001532348
| 86>      2     141.7100000000      0.0009471688
| 87>      3      20.3106000000      0.0610984931
| 88>      4      11.0331000000     -0.2809171554
| 89>      5       6.8951300000      0.0108219307
| 90>      6       3.2416600000      0.5849538901
| 91>      7       1.6653500000      0.5572328251
| 92>     p 7
| 93>      1     613.3310000000     -0.0001107362
| 94>      2     141.7100000000     -0.0008158319
| 95>      3      20.3106000000     -0.0458967599
| 96>      4      11.0331000000      0.2326318709
| 97>      5       6.8951300000     -0.0521838634
| 98>      6       3.2416600000     -0.5042473997
| 99>      7       1.6653500000     -0.5917561069
|100>     p 1
|101>      1       0.8197860000      1.0000000000
|102>     p 1
|103>      1       0.3873040000      1.0000000000
|104>     p 1
|105>      1       0.1715660000      1.0000000000
|106>     p 1
|107>      1       0.0726410000      1.0000000000
|108>     p 1
|109>      1       0.0288000000      1.0000000000
|110>   end
|111>   NewAuxGTO 54
|112>     S 1
|113>      1 1310.72 1.0
|114>     S 1
|115>      1  655.36 1.0
|116>     S 1
|117>      1  327.68 1.0
|118>     S 1
|119>      1  163.84 1.0
|120>     S 1
|121>      1   81.82 1.0
|122>     S 1
|123>      1   40.96 1.0
|124>     S 1
|125>      1   20.48 1.0
|126>     S 1
|127>      1   10.24 1.0
|128>     S 1
|129>      1    5.12 1.0
|130>     S 1
|131>      1    2.56 1.0
|132>     S 1
|133>      1    1.28 1.0
|134>     S 1
|135>      1    0.64 1.0
|136>     S 1
|137>      1    0.32 1.0
|138>     S 1
|139>      1    0.16 1.0
|140>     S 1
|141>      1    0.08 1.0
|142>     S 1
|143>      1    0.04 1.0
|144>     S 1
|145>      1    0.02 1.0
|146>     S 1
|147>      1    0.01 1.0
|148>   end
|149> end
|150>
|151> * xyz 0 1
|152> 54  0.0 0.0 0.0
|153> *
|154>
|155>
|156>                          ****END OF INPUT****

CARTESIAN COORDINATES (ANGSTROEM)
---------------------------------
  Xe     0.000000    0.000000    0.000000

 Total Charge           Charge          ....    0
 Multiplicity           Mult            ....    1
 Number of Electrons    NEL             ....   26
 Basis Dimension        Dim             ....   28

ORBITAL ENERGIES
----------------

  NO   OCC          E(Eh)            E(eV)
   0   2.0000     -13.661912      -371.7595
   1   2.0000     -11.058838      -300.9263
   2   2.0000     -11.056309      -300.8575
   3   2.0000     -11.056309      -300.8575
   4   2.0000      -3.799791      -103.3976
   5   2.0000      -2.788896       -75.8897
   6   2.0000      -2.366627       -64.3992
   7   2.0000      -2.366627       -64.3992
   8   2.0000      -0.849744       -23.1227
   9   2.0000      -0.512558       -13.9474
  10   2.0000      -0.937354       -25.5067
  11   2.0000      -0.937354       -25.5067
  12   2.0000      -0.100902        -2.7457
  13   0.0000       0.042873         1.1666
  14   0.0000       0.042875         1.1667
  15   0.0000       0.042875         1.1667
  16   0.0000       0.341048         9.2804
  17   0.0000       0.341049         9.2804

CleanUpVectors: The p-vectors have cracked symmetry
CleanUpVectors: The p-vectors have cracked symmetry
CleanUpVectors: The p-vectors have cracked symmetry
CleanUpVectors: The p-vectors have cracked symmetry
CleanUpVectors: The p-vectors have cracked symmetry
CleanUpVectors: The p-vectors have cracked symmetry
CleanUpVectors: The p-vectors have cracked symmetry
CleanUpVectors: The p-vectors have cracked symmetry
CleanUpVectors: The p-vectors have cracked symmetry
--------------------------
ATOM BASIS FOR ELEMENT Xe
--------------------------
 NewGTO Xe
 S 25
    1      18774.299999999999         0.000048584592
    2       2824.810000000000         0.000357953969
    3        640.088000000000         0.001498262536
    4        172.616000000000         0.003210154279
    5         29.516900000000        -0.033688400792
    6         18.444800000000         0.267238735453
    7         11.523800000000        -0.366403423651
    8          6.618900000000        -0.341966811814
    9          2.995520000000         0.426166022211
   10          1.649370000000         0.511136869965
   11      18774.299999999999         0.000030303984
   12       2824.810000000000         0.000220545436
   13        640.088000000000         0.000933530156
   14        172.616000000000         0.001976491316
   15         29.516900000000        -0.015823715344
   16         18.444800000000         0.144271238907
   17         11.523800000000        -0.225783828067
   18          6.618900000000        -0.165034498996
   19          2.995520000000         0.282538927538
   20          1.649370000000         0.502395807032
   21          0.860679000000        -0.392086755018
   22          0.442246000000         0.298676249157
   23          0.208182000000        -0.151043337880
   24          0.094828000000         0.054140083444
   25          0.036800000000        -0.007768855331
 P 44
    1        613.331000000000        -0.000006697077
    2        141.710000000000        -0.000041395703
    3         20.310600000000        -0.002670289662
    4         11.033100000000         0.012277392419
    5          6.895130000000        -0.000472968943
    6          3.241660000000        -0.025565218491
    7          1.665350000000        -0.024353678409
    8        613.331000000000        -0.000000004111
    9        141.710000000000        -0.000000025412
   10         20.310600000000        -0.000001639213
   11         11.033100000000         0.000007536735
   12          6.895130000000        -0.000000290342
   13          3.241660000000        -0.000015693746
   14          1.665350000000        -0.000014950017
   15        613.331000000000        -0.000097343008
   16        141.710000000000        -0.000601692697
   17         20.310600000000        -0.038813057480
   18         11.033100000000         0.178453725229
   19          6.895130000000        -0.006874673940
   20          3.241660000000        -0.371594253925
   21          1.665350000000        -0.353984338612
   22        613.331000000000        -0.000003464112
   23        141.710000000000        -0.000025521313
   24         20.310600000000        -0.001435768289
   25         11.033100000000         0.007277321187
   26          6.895130000000        -0.001632445001
   27          3.241660000000        -0.015774151113
   28          1.665350000000        -0.018511647770
   29        613.331000000000        -0.000000002127
   30        141.710000000000        -0.000000015667
   31         20.310600000000        -0.000000881377
   32         11.033100000000         0.000004467336
   33          6.895130000000        -0.000001002111
   34          3.241660000000        -0.000009683294
   35          1.665350000000        -0.000011363764
   36        613.331000000000        -0.000050351386
   37        141.710000000000        -0.000370956080
   38         20.310600000000        -0.020869105669
   39         11.033100000000         0.105776946050
   40          6.895130000000        -0.023727830938
   41          3.241660000000        -0.229279633041
   42          1.665350000000        -0.269069554193
   43          0.819786000000         0.013028237730
   44          0.819786000000         0.000007997657
 S 25
    1      18774.299999999999         0.000081738500
    2       2824.810000000000         0.000602220151
    3        640.088000000000         0.002520670168
    4        172.616000000000         0.005400749156
    5         29.516900000000        -0.056677214337
    6         18.444800000000         0.449601249466
    7         11.523800000000        -0.616435475953
    8          6.618900000000        -0.575323429843
    9          2.995520000000         0.716979803625
   10          1.649370000000         0.859934376635
   11      18774.299999999999        -0.000152516867
   12       2824.810000000000        -0.001109982718
   13        640.088000000000        -0.004698362205
   14        172.616000000000        -0.009947479514
   15         29.516900000000         0.079639147875
   16         18.444800000000        -0.726102453181
   17         11.523800000000         1.136347013375
   18          6.618900000000         0.830601826730
   19          2.995520000000        -1.421989649213
   20          1.649370000000        -2.528506934010
   21          0.860679000000         1.835262534890
   22          0.442246000000         0.257408237803
   23          0.208182000000         0.213445901177
   24          0.094828000000        -0.021004881364
   25          0.036800000000        -0.043702636744
 P 44
    1        613.331000000000         0.000008563711
    2        141.710000000000         0.000052933668
    3         20.310600000000         0.003414562774
    4         11.033100000000        -0.015699393105
    5          6.895130000000         0.000604796613
    6          3.241660000000         0.032690851706
    7          1.665350000000         0.031141626647
    8        613.331000000000         0.000000005257
    9        141.710000000000         0.000000032494
   10         20.310600000000         0.000002096101
   11         11.033100000000        -0.000009637402
   12          6.895130000000         0.000000371267
   13          3.241660000000         0.000020067966
   14          1.665350000000         0.000019116942
   15        613.331000000000         0.000124474815
   16        141.710000000000         0.000769398733
   17         20.310600000000         0.049631177848
   18         11.033100000000        -0.228193014144
   19          6.895130000000         0.008790808741
   20          3.241660000000         0.475166392481
   21          1.665350000000         0.452648175789
   22        613.331000000000        -0.000014394880
   23        141.710000000000        -0.000106052064
   24         20.310600000000        -0.005966236562
   25         11.033100000000         0.030240408618
   26          6.895130000000        -0.006783513138
   27          3.241660000000        -0.065548402084
   28          1.665350000000        -0.076923881519
   29        613.331000000000        -0.000000008837
   30        141.710000000000        -0.000000065102
   31         20.310600000000        -0.000003662500
   32         11.033100000000         0.000018563710
   33          6.895130000000        -0.000004164202
   34          3.241660000000        -0.000040238264
   35          1.665350000000        -0.000047221341
   36        613.331000000000        -0.000209231727
   37        141.710000000000        -0.001541482523
   38         20.310600000000        -0.086720135934
   39         11.033100000000         0.439548837675
   40          6.895130000000        -0.098599372537
   41          3.241660000000        -0.952755774957
   42          1.665350000000        -1.118100060705
   43          0.819786000000         0.092887992417
   44          0.819786000000         0.000057021246
 S 25
    1      18774.299999999999         0.000035927417
    2       2824.810000000000         0.000264700412
    3        640.088000000000         0.001107937738
    4        172.616000000000         0.002373850367
    5         29.516900000000        -0.024911956137
    6         18.444800000000         0.197618156379
    7         11.523800000000        -0.270948629322
    8          6.618900000000        -0.252878201878
    9          2.995520000000         0.315141977744
   10          1.649370000000         0.377976365321
   11      18774.299999999999        -0.000053746030
   12       2824.810000000000        -0.000391151258
   13        640.088000000000        -0.001655674683
   14        172.616000000000        -0.003505432163
   15         29.516900000000         0.028064358417
   16         18.444800000000        -0.255874152814
   17         11.523800000000         0.400441877143
   18          6.618900000000         0.292699105765
   19          2.995520000000        -0.501100630095
   20          1.649370000000        -0.891030689662
   21          0.860679000000         0.901743569188
   22          0.442246000000        -0.034479182668
   23          0.208182000000         0.094820029759
   24          0.094828000000        -1.877329797955
   25          0.036800000000         2.048671691578
 S 25
    1      18774.299999999999         0.000046690090
    2       2824.810000000000         0.000343995954
    3        640.088000000000         0.001439839461
    4        172.616000000000         0.003084977896
    5         29.516900000000        -0.032374759207
    6         18.444800000000         0.256818059264
    7         11.523800000000        -0.352115931136
    8          6.618900000000        -0.328632197701
    9          2.995520000000         0.409548153874
   10          1.649370000000         0.491205658267
   11      18774.299999999999        -0.000074536408
   12       2824.810000000000        -0.000542458851
   13        640.088000000000        -0.002296133195
   14        172.616000000000        -0.004861425518
   15         29.516900000000         0.038920390358
   16         18.444800000000        -0.354853004732
   17         11.523800000000         0.555343327030
   18          6.618900000000         0.405922817998
   19          2.995520000000        -0.694939532995
   20          1.649370000000        -1.235704794946
   21          0.860679000000         0.239322530218
   22          0.442246000000         4.246383143515
   23          0.208182000000        -8.378518656861
   24          0.094828000000         6.768741627644
   25          0.036800000000        -2.176141484863
 S 25
    1      18774.299999999999         0.000347715785
    2       2824.810000000000         0.002561846047
    3        640.088000000000         0.010722937270
    4        172.616000000000         0.022974800564
    5         29.516900000000        -0.241105013107
    6         18.444800000000         1.912604852119
    7         11.523800000000        -2.622318073463
    8          6.618900000000        -2.447427325350
    9          2.995520000000         3.050033897620
   10          1.649370000000         3.658163012689
   11      18774.299999999999        -0.000453271210
   12       2824.810000000000        -0.003298803738
   13        640.088000000000        -0.013963257761
   14        172.616000000000        -0.029563327485
   15         29.516900000000         0.236682890983
   16         18.444800000000        -2.157934035648
   17         11.523800000000         3.377156881546
   18          6.618900000000         2.468500063758
   19          2.995520000000        -4.226070093733
   20          1.649370000000        -7.514574766090
   21          0.860679000000        13.299027766072
   22          0.442246000000       -16.192435970191
   23          0.208182000000        11.037676885590
   24          0.094828000000        -4.733939930190
   25          0.036800000000         1.029771325264
 S 25
    1      18774.299999999999         0.000343599872
    2       2824.810000000000         0.002531521465
    3        640.088000000000         0.010596009820
    4        172.616000000000         0.022702847760
    5         29.516900000000        -0.238251052122
    6         18.444800000000         1.889965340994
    7         11.523800000000        -2.591277684156
    8          6.618900000000        -2.418457118514
    9          2.995520000000         3.013930634428
   10          1.649370000000         3.614861322780
   11      18774.299999999999        -0.000131871999
   12       2824.810000000000        -0.000959734111
   13        640.088000000000        -0.004062386199
   14        172.616000000000        -0.008600976621
   15         29.516900000000         0.068859096224
   16         18.444800000000        -0.627816344432
   17         11.523800000000         0.982529703374
   18          6.618900000000         0.718170556031
   19          2.995520000000        -1.229507405570
   20          1.649370000000        -2.186245168607
   21          0.860679000000        -3.957245244737
   22          0.442246000000         3.599037085001
   23          0.208182000000        -2.037089935446
   24          0.094828000000         0.825300621393
   25          0.036800000000        -0.183288309521
 P 44
    1        613.331000000000         0.000142771614
    2        141.710000000000         0.000882494177
    3         20.310600000000         0.056926563017
    4         11.033100000000        -0.261735557426
    5          6.895130000000         0.010082987136
    6          3.241660000000         0.545012041988
    7          1.665350000000         0.519183828008
    8        613.331000000000         0.000050053784
    9        141.710000000000         0.000309390439
   10         20.310600000000         0.019957677681
   11         11.033100000000        -0.091760921718
   12          6.895130000000         0.003534957964
   13          3.241660000000         0.191073799113
   14          1.665350000000         0.182018779060
   15        613.331000000000        -0.000009824622
   16        141.710000000000        -0.000060727559
   17         20.310600000000        -0.003917319005
   18         11.033100000000         0.018010953393
   19          6.895130000000        -0.000693846160
   20          3.241660000000        -0.037504214497
   21          1.665350000000        -0.035726883351
   22        613.331000000000        -0.000230848120
   23        141.710000000000        -0.001700737973
   24         20.310600000000        -0.095679468282
   25         11.033100000000         0.484960022486
   26          6.895130000000        -0.108785986503
   27          3.241660000000        -1.051187996515
   28          1.665350000000        -1.233614524949
   29        613.331000000000        -0.000080932207
   30        141.710000000000        -0.000596255570
   31         20.310600000000        -0.033543918470
   32         11.033100000000         0.170020378956
   33          6.895130000000        -0.038138885254
   34          3.241660000000        -0.368532194893
   35          1.665350000000        -0.432488451198
   36        613.331000000000         0.000015885479
   37        141.710000000000         0.000117033821
   38         20.310600000000         0.006584044067
   39         11.033100000000        -0.033371821729
   40          6.895130000000         0.007485950140
   41          3.241660000000         0.072335979869
   42          1.665350000000         0.084889397271
   43          0.819786000000         1.575947141530
   44          0.819786000000         0.552505604164
 P 44
    1        613.331000000000         0.000007113111
    2        141.710000000000         0.000043967276
    3         20.310600000000         0.002836172722
    4         11.033100000000        -0.013040085489
    5          6.895130000000         0.000502350600
    6          3.241660000000         0.027153374536
    7          1.665350000000         0.025866571468
    8        613.331000000000        -0.000029014314
    9        141.710000000000        -0.000179342117
   10         20.310600000000        -0.011568722577
   11         11.033100000000         0.053190389371
   12          6.895130000000        -0.002049083499
   13          3.241660000000        -0.110758366232
   14          1.665350000000        -0.105509508294
   15        613.331000000000        -0.000000488148
   16        141.710000000000        -0.000003017319
   17         20.310600000000        -0.000194636537
   18         11.033100000000         0.000894895104
   19          6.895130000000        -0.000034474551
   20          3.241660000000        -0.001863440384
   21          1.665350000000        -0.001775131626
   22        613.331000000000        -0.000006131752
   23        141.710000000000        -0.000045174736
   24         20.310600000000        -0.002541423051
   25         11.033100000000         0.012881432162
   26          6.895130000000        -0.002889556335
   27          3.241660000000        -0.027921490924
   28          1.665350000000        -0.032767075801
   29        613.331000000000         0.000025011359
   30        141.710000000000         0.000184267333
   31         20.310600000000         0.010366441367
   32         11.033100000000        -0.052543243900
   33          6.895130000000         0.011786473847
   34          3.241660000000         0.113891505949
   35          1.665350000000         0.133656602314
   36        613.331000000000         0.000000420800
   37        141.710000000000         0.000003100183
   38         20.310600000000         0.000174408906
   39         11.033100000000        -0.000884007285
   40          6.895130000000         0.000198300066
   41          3.241660000000         0.001916153505
   42          1.665350000000         0.002248688915
   43          0.819786000000         0.085917709600
   44          0.819786000000        -0.350457551162
 P 19
    1        613.331000000000         0.000031972628
    2        141.710000000000         0.000197627928
    3         20.310600000000         0.012748275291
    4         11.033100000000        -0.058613707955
    5          6.895130000000         0.002258009073
    6          3.241660000000         0.122051344399
    7          1.665350000000         0.116267310292
    8        613.331000000000        -0.000044513835
    9        141.710000000000        -0.000327948826
   10         20.310600000000        -0.018449620006
   11         11.033100000000         0.093513564548
   12          6.895130000000        -0.020976915414
   13          3.241660000000        -0.202697814267
   14          1.665350000000        -0.237874641533
   15          0.819786000000         0.399556524177
   16          0.387304000000        -0.140409379549
   17          0.171566000000        -0.095236552871
   18          0.072641000000        -0.806414447048
   19          0.028800000000         1.467904295460
 P 19
    1        613.331000000000         0.000061143226
    2        141.710000000000         0.000377936058
    3         20.310600000000         0.024379311963
    4         11.033100000000        -0.112090603543
    5          6.895130000000         0.004318129813
    6          3.241660000000         0.233406302625
    7          1.665350000000         0.222345137983
    8        613.331000000000        -0.000085484182
    9        141.710000000000        -0.000629791545
   10         20.310600000000        -0.035430572570
   11         11.033100000000         0.179583055581
   12          6.895130000000        -0.040283980029
   13          3.241660000000        -0.389260028975
   14          1.665350000000        -0.456813459931
   15          0.819786000000         0.575752074987
   16          0.387304000000         0.722332173973
   17          0.171566000000        -2.952655455233
   18          0.072641000000         3.275367911025
   19          0.028800000000        -1.342102637340
 P 19
    1        613.331000000000         0.000254261805
    2        141.710000000000         0.001571632870
    3         20.310600000000         0.101380450971
    4         11.033100000000        -0.466124554878
    5          6.895130000000         0.017956780259
    6          3.241660000000         0.970611322255
    7          1.665350000000         0.924613885518
    8        613.331000000000        -0.000328845712
    9        141.710000000000        -0.002422720140
   10         20.310600000000        -0.136296465720
   11         11.033100000000         0.690830940714
   12          6.895130000000        -0.154966846560
   13          3.241660000000        -1.497428981420
   14          1.665350000000        -1.757297598225
   15          0.819786000000         4.207143497521
   16          0.387304000000        -5.891752282555
   17          0.171566000000         4.479863693616
   18          0.072641000000        -2.143375644475
   19          0.028800000000         0.598119368273
 P 19
    1        613.331000000000        -0.003807419535
    2        141.710000000000        -0.023534268923
    3         20.310600000000        -1.518112048699
    4         11.033100000000         6.979938402097
    5          6.895130000000        -0.268892120776
    6          3.241660000000       -14.534328155045
    7          1.665350000000       -13.845543855399
    8        613.331000000000         0.002742929362
    9        141.710000000000         0.020208109658
   10         20.310600000000         1.136860126481
   11         11.033100000000        -5.762278181532
   12          6.895130000000         1.292591321793
   13          3.241660000000        12.490179347070
   14          1.665350000000        14.657765036175
   15          0.819786000000         0.363379231549
   16          0.387304000000        -0.565816286037
   17          0.171566000000         0.366675304186
   18          0.072641000000        -0.169368633988
   19          0.028800000000         0.049246345048
 end
  // -----------------------------------------------
  // The basis set
  // -----------------------------------------------
  BAS[ATNO] = new BFNGauss[NSH];
  // Basis function   1 L = s
  InitBFNGauss(BAS[ATNO][  0]);
  BAS[ATNO][  0].l  = 0;
  BAS[ATNO][  0].ng = 25;
  BAS[ATNO][  0].a[  0] =     18774.299999999999;     BAS[ATNO][  0].d[  0] =         0.000048584592;
  BAS[ATNO][  0].a[  1] =      2824.810000000000;     BAS[ATNO][  0].d[  1] =         0.000357953969;
  BAS[ATNO][  0].a[  2] =       640.088000000000;     BAS[ATNO][  0].d[  2] =         0.001498262536;
  BAS[ATNO][  0].a[  3] =       172.616000000000;     BAS[ATNO][  0].d[  3] =         0.003210154279;
  BAS[ATNO][  0].a[  4] =        29.516900000000;     BAS[ATNO][  0].d[  4] =        -0.033688400792;
  BAS[ATNO][  0].a[  5] =        18.444800000000;     BAS[ATNO][  0].d[  5] =         0.267238735453;
  BAS[ATNO][  0].a[  6] =        11.523800000000;     BAS[ATNO][  0].d[  6] =        -0.366403423651;
  BAS[ATNO][  0].a[  7] =         6.618900000000;     BAS[ATNO][  0].d[  7] =        -0.341966811814;
  BAS[ATNO][  0].a[  8] =         2.995520000000;     BAS[ATNO][  0].d[  8] =         0.426166022211;
  BAS[ATNO][  0].a[  9] =         1.649370000000;     BAS[ATNO][  0].d[  9] =         0.511136869965;
  BAS[ATNO][  0].a[ 10] =     18774.299999999999;     BAS[ATNO][  0].d[ 10] =         0.000030303984;
  BAS[ATNO][  0].a[ 11] =      2824.810000000000;     BAS[ATNO][  0].d[ 11] =         0.000220545436;
  BAS[ATNO][  0].a[ 12] =       640.088000000000;     BAS[ATNO][  0].d[ 12] =         0.000933530156;
  BAS[ATNO][  0].a[ 13] =       172.616000000000;     BAS[ATNO][  0].d[ 13] =         0.001976491316;
  BAS[ATNO][  0].a[ 14] =        29.516900000000;     BAS[ATNO][  0].d[ 14] =        -0.015823715344;
  BAS[ATNO][  0].a[ 15] =        18.444800000000;     BAS[ATNO][  0].d[ 15] =         0.144271238907;
  BAS[ATNO][  0].a[ 16] =        11.523800000000;     BAS[ATNO][  0].d[ 16] =        -0.225783828067;
  BAS[ATNO][  0].a[ 17] =         6.618900000000;     BAS[ATNO][  0].d[ 17] =        -0.165034498996;
  BAS[ATNO][  0].a[ 18] =         2.995520000000;     BAS[ATNO][  0].d[ 18] =         0.282538927538;
  BAS[ATNO][  0].a[ 19] =         1.649370000000;     BAS[ATNO][  0].d[ 19] =         0.502395807032;
  BAS[ATNO][  0].a[ 20] =         0.860679000000;     BAS[ATNO][  0].d[ 20] =        -0.392086755018;
  BAS[ATNO][  0].a[ 21] =         0.442246000000;     BAS[ATNO][  0].d[ 21] =         0.298676249157;
  BAS[ATNO][  0].a[ 22] =         0.208182000000;     BAS[ATNO][  0].d[ 22] =        -0.151043337880;
  BAS[ATNO][  0].a[ 23] =         0.094828000000;     BAS[ATNO][  0].d[ 23] =         0.054140083444;
  BAS[ATNO][  0].a[ 24] =         0.036800000000;     BAS[ATNO][  0].d[ 24] =        -0.007768855331;

FINAL SINGLE POINT ENERGY      -283.592332139848

DIPOLE MOMENT
-------------
                                X             Y             Z
Electronic contribution:      0.00000      -0.00000       0.00000
Nuclear contribution   :      0.00000       0.00000       0.00000
                        -----------------------------------------
Total Dipole Moment    :      0.00000      -0.00000       0.00000
                        -----------------------------------------
Magnitude (a.u.)       :      0.00000
Magnitude (Debye)      :      0.00000

Rotational constants in cm-1:     0.000000     0.000000     0.000000
Rotational constants in MHz :     0.000000     0.000000     0.000000

                             ****ORCA TERMINATED NORMALLY****
TOTAL RUN TIME: 0 days 0 hours 0 minutes 1 seconds 156 msec
