                         Program Version 4.2.0 -  RELEASE  -
|  1> #
|  2> # 56_Ba CCSD(T)/aug-cc-pVQZ-PP
|  3> #
|  4> ! CCSD(T) aug-cc-pVQZ-PP tightscf
|  5>
|  6> *xyz 0 1
|  7>  Ba 0.0 0.0 0.0
|  8> *
|  9>
| 10> %maxcore 5000
| 11>
| 12> %pal
| 13> nprocs 15
| 14> end
| 15>
| 16> %method
| 17> NewNCore Ba 46 end
| 18> end
| 19>
| 20>
| 21>                          ****END OF INPUT****

CARTESIAN COORDINATES (ANGSTROEM)
---------------------------------
  Ba     0.000000    0.000000    0.000000

 Total Charge           Charge          ....    0
 Multiplicity           Mult            ....    1
 Number of Electrons    NEL             ....   10
 Basis Dimension        Dim             ....   95

ORBITAL ENERGIES
----------------

  NO   OCC          E(Eh)            E(eV)
   0   2.0000      -1.604863       -43.6706
   1   2.0000      -0.896954       -24.4074
   2   2.0000      -0.896954       -24.4074
   3   2.0000      -0.896954       -24.4074
   4   2.0000      -0.163179        -4.4403
   5   0.0000       0.006990         0.1902
   6   0.0000       0.006990         0.1902
   7   0.0000       0.006990         0.1902
   8   0.0000       0.015294         0.4162
   9   0.0000       0.023666         0.6440

E(0)                                       ...    -25.095015801
E(0)                                       ...    -25.095015801
E(CORR)                                    ...     -0.221870142
E(TOT)                                     ...    -25.316885944
E(CCSD(T))                                 ...    -25.326350480

MULLIKEN ATOMIC CHARGES
-----------------------
   0 Ba:   -0.000000
Sum of atomic charges:   -0.0000000

LOEWDIN ATOMIC CHARGES
----------------------
   0 Ba:   -0.000000

FINAL SINGLE POINT ENERGY       -25.326350480273

DIPOLE MOMENT
-------------
                                X             Y             Z
Electronic contribution:     -0.00000       0.00000      -0.00000
Nuclear contribution   :      0.00000       0.00000       0.00000
                        -----------------------------------------
Total Dipole Moment    :     -0.00000       0.00000      -0.00000
                        -----------------------------------------
Magnitude (a.u.)       :      0.00000
Magnitude (Debye)      :      0.00000

Rotational constants in cm-1:     0.000000     0.000000     0.000000
Rotational constants in MHz :     0.000000     0.000000     0.000000

                             ****ORCA TERMINATED NORMALLY****
TOTAL RUN TIME: 0 days 0 hours 0 minutes 10 seconds 550 msec
