                         Program Version 4.2.0 -  RELEASE  -
|  1> # input to generate an atomic fitting density for Ba
|  2> # this file is use internally by ORCA
|  3> #
|  4> # atomic ground state (S=1): 1s2 2s2 2p6 3s2 3p6 4s2 3d10 4p6 5s2 4d10 5p6 6s2
|  5> #
|  6> ! RHF AllowRHF def2-SVP def2/J  NoMulliken NoLoewdin NoMayer NoPrintMOs
|  7>
|  8> %output print[p_atomdensfit] 2 end
|  9>
| 10> %scf
| 11>   guess hcore
| 12>   maxiter 1000
| 13>   maxdisk 500000
| 14>   SCFMode Conventional
| 15>   lshift 1.000000
| 16>   hftyp rohf
| 17>   rohf_case sahf
| 18>   rohf_numop   2
| 19>   rohf_norb[1] 1
| 20>   rohf_nel[1]  2
| 21> end
| 22>
| 23> %basis
| 24>   NewECP 56
| 25>     N_core 46
| 26>     lmax h
| 27>     s 2
| 28>       1       4.1779316000     84.7854576000  2
| 29>       2       2.5226328000     17.3727090000  2
| 30>     p 4
| 31>       1       6.2941194000     52.5122257000  2
| 32>       2       6.4764577000    105.0226686000  2
| 33>       3       2.2843266000      8.7070149000  2
| 34>       4       2.0915552000     17.1654588000  2
| 35>     d 4
| 36>       1       1.9252917000      5.3465357000  2
| 37>       2       1.8785341000      8.0257207000  2
| 38>       3       0.9070887000      1.3462951000  2
| 39>       4       0.9100610000      2.0637105000  2
| 40>     f 4
| 41>       1       6.2563217000    -20.0032235000  2
| 42>       2       6.1341358000    -26.1182147000  2
| 43>       3       1.6413828000     -2.3444580000  2
| 44>       4       1.5993433000     -2.9808675000  2
| 45>     g 2
| 46>       1       2.1423810000     -3.3166028000  2
| 47>       2       2.1599811000     -4.2756470000  2
| 48>     h 1
| 49>       1       1.0000000000      0.0000000000  2
| 50>   end
| 51>   NewGTO 56
| 52>     s 11
| 53>      1      40.9251000000      0.0020157153
| 54>      2      25.5068000000     -0.0083490988
| 55>      3      15.8241000000      0.0256800322
| 56>      4       9.8683600000     -0.0591155969
| 57>      5       6.1633500000      0.0147136170
| 58>      6       3.8497100000      0.3953111991
| 59>      7       2.3537000000     -0.6527040835
| 60>      8       1.1608200000     -0.4577963649
| 61>      9       0.6880060000      0.5290715360
| 62>     10       0.3384950000      0.7690661961
| 63>     11       0.1735430000      0.2399866254
| 64>     s 11
| 65>      1      40.9251000000     -0.0009921659
| 66>      2      25.5068000000      0.0040191126
| 67>      3      15.8241000000     -0.0124364705
| 68>      4       9.8683600000      0.0297084120
| 69>      5       6.1633500000     -0.0111798290
| 70>      6       3.8497100000     -0.1963662895
| 71>      7       2.3537000000      0.3512221323
| 72>      8       1.1608200000      0.2216198920
| 73>      9       0.6880060000     -0.2925253547
| 74>     10       0.3384950000     -0.5894397822
| 75>     11       0.1735430000     -0.4189921062
| 76>     s 1
| 77>      1       0.0631020000      1.0000000000
| 78>     s 1
| 79>      1       0.0311800000      1.0000000000
| 80>     s 1
| 81>      1       0.0150780000      1.0000000000
| 82>     s 1
| 83>      1       0.0073000000      1.0000000000
| 84>     p 8
| 85>      1      12.4337000000     -0.0029897436
| 86>      2       6.8212500000      0.0240760406
| 87>      3       4.2557800000     -0.0136939860
| 88>      4       1.8572500000     -0.2211249555
| 89>      5       0.6522300000      0.3241790545
| 90>      6       0.3566350000      0.5029152897
| 91>      7       0.1877240000      0.2971993204
| 92>      8       0.0891360000      0.0526216879
| 93>     p 8
| 94>      1      12.4337000000      0.0030639566
| 95>      2       6.8212500000     -0.0237472365
| 96>      3       4.2557800000      0.0176633637
| 97>      4       1.8572500000      0.1897230865
| 98>      5       0.6522300000     -0.3200765089
| 99>      6       0.3566350000     -0.4874522159
|100>      7       0.1877240000     -0.5423926697
|101>      8       0.0891360000      0.3030265657
|102>     p 1
|103>      1       0.0446820000      1.0000000000
|104>     p 1
|105>      1       0.0226960000      1.0000000000
|106>     p 1
|107>      1       0.0116430000      1.0000000000
|108>     p 1
|109>      1       0.0060000000      1.0000000000
|110>   end
|111>   NewAuxGTO 56
|112>     S 1
|113>      1 1310.72 1.0
|114>     S 1
|115>      1  655.36 1.0
|116>     S 1
|117>      1  327.68 1.0
|118>     S 1
|119>      1  163.84 1.0
|120>     S 1
|121>      1   81.82 1.0
|122>     S 1
|123>      1   40.96 1.0
|124>     S 1
|125>      1   20.48 1.0
|126>     S 1
|127>      1   10.24 1.0
|128>     S 1
|129>      1    5.12 1.0
|130>     S 1
|131>      1    2.56 1.0
|132>     S 1
|133>      1    1.28 1.0
|134>     S 1
|135>      1    0.64 1.0
|136>     S 1
|137>      1    0.32 1.0
|138>     S 1
|139>      1    0.16 1.0
|140>     S 1
|141>      1    0.08 1.0
|142>     S 1
|143>      1    0.04 1.0
|144>     S 1
|145>      1    0.02 1.0
|146>     S 1
|147>      1    0.01 1.0
|148>   end
|149> end
|150>
|151> * xyz 0 1
|152> 56  0.0 0.0 0.0
|153> *
|154>
|155>
|156>                          ****END OF INPUT****

CARTESIAN COORDINATES (ANGSTROEM)
---------------------------------
  Ba     0.000000    0.000000    0.000000

 Total Charge           Charge          ....    0
 Multiplicity           Mult            ....    1
 Number of Electrons    NEL             ....   10
 Basis Dimension        Dim             ....   24

ORBITAL ENERGIES
----------------

  NO   OCC          E(Eh)            E(eV)
   0   2.0000      -1.569441       -42.7067
   1   2.0000      -0.896976       -24.4080
   2   2.0000      -0.896976       -24.4080
   3   2.0000      -0.896976       -24.4080
   4   2.0000      -0.198616        -5.4046
   5   0.0000       0.007000         0.1905
   6   0.0000       0.007000         0.1905
   7   0.0000       0.007000         0.1905
   8   0.0000       0.015295         0.4162
   9   0.0000       0.023666         0.6440

--------------------------
ATOM BASIS FOR ELEMENT Ba
--------------------------
 NewGTO Ba
 S 26
    1         40.925100000000        -0.001982229067
    2         25.506800000000         0.008210398722
    3         15.824100000000        -0.025253420592
    4          9.868360000000         0.058133534275
    5          6.163350000000        -0.014469185850
    6          3.849710000000        -0.388744059899
    7          2.353700000000         0.641860984233
    8          1.160820000000         0.450191185839
    9          0.688006000000        -0.520282292407
   10          0.338495000000        -0.756290021846
   11          0.173543000000        -0.235999828216
   12         40.925100000000        -0.000101659039
   13         25.506800000000         0.000411805250
   14         15.824100000000        -0.001274262344
   15          9.868360000000         0.003043975437
   16          6.163350000000        -0.001145504676
   17          3.849710000000        -0.020120030712
   18          2.353700000000         0.035986829035
   19          1.160820000000         0.022707558638
   20          0.688006000000        -0.029972655365
   21          0.338495000000        -0.060395022744
   22          0.173543000000        -0.042930658139
   23          0.063102000000         0.050299067834
   24          0.031180000000         0.107835267398
   25          0.015078000000         0.033425357109
   26          0.007300000000        -0.000036146161
 S 26
    1         40.925100000000         0.000314389862
    2         25.506800000000        -0.001302203750
    3         15.824100000000         0.004005298660
    4          9.868360000000        -0.009220222904
    5          6.163350000000         0.002294873698
    6          3.849710000000         0.061656442009
    7          2.353700000000        -0.101801850200
    8          1.160820000000        -0.071402214479
    9          0.688006000000         0.082518958613
   10          0.338495000000         0.119950776574
   11          0.173543000000         0.037430564794
   12         40.925100000000        -0.000640436601
   13         25.506800000000         0.002594310904
   14         15.824100000000        -0.008027660390
   15          9.868360000000         0.019176585693
   16          6.163350000000        -0.007216506518
   17          3.849710000000        -0.126753155902
   18          2.353700000000         0.226711589881
   19          1.160820000000         0.143054191191
   20          0.688006000000        -0.188823203738
   21          0.338495000000        -0.380479525269
   22          0.173543000000        -0.270456664909
   23          0.063102000000         0.362238671280
   24          0.031180000000         0.669630890400
   25          0.015078000000         0.213335879341
   26          0.007300000000        -0.000664798183
 S 26
    1         40.925100000000         0.000055619763
    2         25.506800000000        -0.000230377227
    3         15.824100000000         0.000708590800
    4          9.868360000000        -0.001631180513
    5          6.163350000000         0.000405993792
    6          3.849710000000         0.010907847648
    7          2.353700000000        -0.018010106261
    8          1.160820000000        -0.012632004895
    9          0.688006000000         0.014598705330
   10          0.338495000000         0.021220893608
   11          0.173543000000         0.006621966575
   12         40.925100000000        -0.000211772634
   13         25.506800000000         0.000857858612
   14         15.824100000000        -0.002654499732
   15          9.868360000000         0.006341105518
   16          6.163350000000        -0.002386276162
   17          3.849710000000        -0.041913359819
   18          2.353700000000         0.074966531400
   19          1.160820000000         0.047303609495
   20          0.688006000000        -0.062438010511
   21          0.338495000000        -0.125812845708
   22          0.173543000000        -0.089431678693
   23          0.063102000000         0.485927450133
   24          0.031180000000        -1.275238699738
   25          0.015078000000         3.248696085255
   26          0.007300000000        -2.869343258685
 S 26
    1         40.925100000000        -0.000104739480
    2         25.506800000000         0.000433831241
    3         15.824100000000        -0.001334371590
    4          9.868360000000         0.003071731858
    5          6.163350000000        -0.000764540806
    6          3.849710000000        -0.020540941268
    7          2.353700000000         0.033915447565
    8          1.160820000000         0.023787760796
    9          0.688006000000        -0.027491321704
   10          0.338495000000        -0.039961791119
   11          0.173543000000        -0.012470051921
   12         40.925100000000        -0.000200949630
   13         25.506800000000         0.000814016276
   14         15.824100000000        -0.002518836970
   15          9.868360000000         0.006017032442
   16          6.163350000000        -0.002264321425
   17          3.849710000000        -0.039771305665
   18          2.353700000000         0.071135238211
   19          1.160820000000         0.044886077385
   20          0.688006000000        -0.059247008874
   21          0.338495000000        -0.119382964402
   22          0.173543000000        -0.084861119337
   23          0.063102000000        -1.377831551321
   24          0.031180000000         6.086444980689
   25          0.015078000000        -7.401623524187
   26          0.007300000000         2.909065041973
 S 26
    1         40.925100000000         0.001100771560
    2         25.506800000000        -0.004559399092
    3         15.824100000000         0.014023730979
    4          9.868360000000        -0.032282717605
    5          6.163350000000         0.008035029120
    6          3.849710000000         0.215877373756
    7          2.353700000000        -0.356438278771
    8          1.160820000000        -0.250000195276
    9          0.688006000000         0.288923192616
   10          0.338495000000         0.419983018535
   11          0.173543000000         0.131055438212
   12         40.925100000000        -0.002109023597
   13         25.506800000000         0.008543332633
   14         15.824100000000        -0.026435911317
   15          9.868360000000         0.063150469018
   16          6.163350000000        -0.023764698190
   17          3.849710000000        -0.417411179068
   18          2.353700000000         0.746584582982
   19          1.160820000000         0.471092164852
   20          0.688006000000        -0.621814230556
   21          0.338495000000        -1.252958209396
   22          0.173543000000        -0.890641614273
   23          0.063102000000         6.731028220940
   24          0.031180000000        -9.705215084212
   25          0.015078000000         6.158001730944
   26          0.007300000000        -1.783513784072
 S 26
    1         40.925100000000        -0.014124585789
    2         25.506800000000         0.058504076575
    3         15.824100000000        -0.179945956595
    4          9.868360000000         0.414236732687
    5          6.163350000000        -0.103101735442
    6          3.849710000000        -2.770037487517
    7          2.353700000000         4.573649275980
    8          1.160820000000         3.207885572959
    9          0.688006000000        -3.707327269338
   10          0.338495000000        -5.389025654799
   11          0.173543000000        -1.681642084449
   12         40.925100000000         0.007512437469
   13         25.506800000000        -0.030431737364
   14         15.824100000000         0.094165912144
   15          9.868360000000        -0.224944827741
   16          6.163350000000         0.084650930133
   17          3.849710000000         1.486837504668
   18          2.353700000000        -2.659368062118
   19          1.160820000000        -1.678051604708
   20          0.688006000000         2.214930421823
   21          0.338495000000         4.463093829137
   22          0.173543000000         3.172505725112
   23          0.063102000000        -1.183852894312
   24          0.031180000000         0.971782304281
   25          0.015078000000        -0.491412836380
   26          0.007300000000         0.133980159077
 P 20
    1         12.433700000000         0.002988100320
    2          6.821250000000        -0.024062807464
    3          4.255780000000         0.013686459248
    4          1.857250000000         0.221003416554
    5          0.652230000000        -0.324000872980
    6          0.356635000000        -0.502638867736
    7          0.187724000000        -0.297035968000
    8          0.089136000000        -0.052592764957
    9         12.433700000000        -0.000000016854
   10          6.821250000000         0.000000130626
   11          4.255780000000        -0.000000097161
   12          1.857250000000        -0.000001043609
   13          0.652230000000         0.000001760643
   14          0.356635000000         0.000002681326
   15          0.187724000000         0.000002983536
   16          0.089136000000        -0.000001666857
   17          0.044682000000        -0.000297357153
   18          0.022696000000        -0.002282728204
   19          0.011643000000         0.000730142020
   20          0.006000000000        -0.000195454025
 P 20
    1         12.433700000000         0.000028970519
    2          6.821250000000        -0.000233296056
    3          4.255780000000         0.000132694282
    4          1.857250000000         0.002142693681
    5          0.652230000000        -0.003141284574
    6          0.356635000000        -0.004873232924
    7          0.187724000000        -0.002879851822
    8          0.089136000000        -0.000509902457
    9         12.433700000000         0.000314550083
   10          6.821250000000        -0.002437924613
   11          4.255780000000         0.001813345696
   12          1.857250000000         0.019477238210
   13          0.652230000000        -0.032859503419
   14          0.356635000000        -0.050042528300
   15          0.187724000000        -0.055682792359
   16          0.089136000000         0.031109132331
   17          0.044682000000         0.006877826573
   18          0.022696000000         0.524650436136
   19          0.011643000000        -0.660953063262
   20          0.006000000000         1.241083586137
 P 20
    1         12.433700000000         0.000106050942
    2          6.821250000000        -0.000854015302
    3          4.255780000000         0.000485747378
    4          1.857250000000         0.007843652481
    5          0.652230000000        -0.011499144632
    6          0.356635000000        -0.017839202050
    7          0.187724000000        -0.010542130722
    8          0.089136000000        -0.001866574634
    9         12.433700000000         0.000424022876
   10          6.821250000000        -0.003286394955
   11          4.255780000000         0.002444443982
   12          1.857250000000         0.026255896945
   13          0.652230000000        -0.044295588835
   14          0.356635000000        -0.067458817914
   15          0.187724000000        -0.075062061777
   16          0.089136000000         0.041936036501
   17          0.044682000000         0.391704759294
   18          0.022696000000        -0.850270783283
   19          0.011643000000         2.810092352124
   20          0.006000000000        -2.134165926126
 P 20
    1         12.433700000000        -0.000074381421
    2          6.821250000000         0.000598984509
    3          4.255780000000        -0.000340690798
    4          1.857250000000        -0.005501337416
    5          0.652230000000         0.008065206200
    6          0.356635000000         0.012511960462
    7          0.187724000000         0.007393981099
    8          0.089136000000         0.001309167750
    9         12.433700000000         0.000602194669
   10          6.821250000000        -0.004667317812
   11          4.255780000000         0.003471584241
   12          1.857250000000         0.037288462635
   13          0.652230000000        -0.062908321610
   14          0.356635000000        -0.095804596447
   15          0.187724000000        -0.106602676409
   16          0.089136000000         0.059557299962
   17          0.044682000000        -0.623788189806
   18          0.022696000000         3.871170349500
   19          0.011643000000        -4.855168496683
   20          0.006000000000         1.949440580191
 P 20
    1         12.433700000000        -0.000044095339
    2          6.821250000000         0.000355094391
    3          4.255780000000        -0.000201970818
    4          1.857250000000        -0.003261343206
    5          0.652230000000         0.004781274708
    6          0.356635000000         0.007417432192
    7          0.187724000000         0.004383354119
    8          0.089136000000         0.000776110430
    9         12.433700000000         0.001678568567
   10          6.821250000000        -0.013009768071
   11          4.255780000000         0.009676758182
   12          1.857250000000         0.103938551046
   13          0.652230000000        -0.175351820237
   14          0.356635000000        -0.267047505705
   15          0.187724000000        -0.297146273689
   16          0.089136000000         0.166011120461
   17          0.044682000000         3.422649741659
   18          0.022696000000        -5.694239016777
   19          0.011643000000         3.957712457238
   20          0.006000000000        -1.240857664890
 P 20
    1         12.433700000000         0.074946045466
    2          6.821250000000        -0.603531364179
    3          4.255780000000         0.343276961064
    4          1.857250000000         5.543097732060
    5          0.652230000000        -8.126428686971
    6          0.356635000000       -12.606937988753
    7          0.187724000000        -7.450108356852
    8          0.089136000000        -1.319105562717
    9         12.433700000000        -0.070219406620
   10          6.821250000000         0.544236447703
   11          4.255780000000        -0.404806947308
   12          1.857250000000        -4.348051978343
   13          0.652230000000         7.335476791032
   14          0.356635000000        11.171374084153
   15          0.187724000000        12.430493115174
   16          0.089136000000        -6.944728144523
   17          0.044682000000         9.471434335338
   18          0.022696000000        -7.594214907375
   19          0.011643000000         4.204292262373
   20          0.006000000000        -1.255668767871
 end
  // -----------------------------------------------
  // The basis set
  // -----------------------------------------------
  BAS[ATNO] = new BFNGauss[NSH];
  // Basis function   1 L = s
  InitBFNGauss(BAS[ATNO][  0]);
  BAS[ATNO][  0].l  = 0;
  BAS[ATNO][  0].ng = 26;
  BAS[ATNO][  0].a[  0] =        40.925100000000;     BAS[ATNO][  0].d[  0] =         0.001982229067;
  BAS[ATNO][  0].a[  1] =        25.506800000000;     BAS[ATNO][  0].d[  1] =        -0.008210398722;
  BAS[ATNO][  0].a[  2] =        15.824100000000;     BAS[ATNO][  0].d[  2] =         0.025253420592;
  BAS[ATNO][  0].a[  3] =         9.868360000000;     BAS[ATNO][  0].d[  3] =        -0.058133534275;
  BAS[ATNO][  0].a[  4] =         6.163350000000;     BAS[ATNO][  0].d[  4] =         0.014469185850;
  BAS[ATNO][  0].a[  5] =         3.849710000000;     BAS[ATNO][  0].d[  5] =         0.388744059899;
  BAS[ATNO][  0].a[  6] =         2.353700000000;     BAS[ATNO][  0].d[  6] =        -0.641860984233;
  BAS[ATNO][  0].a[  7] =         1.160820000000;     BAS[ATNO][  0].d[  7] =        -0.450191185839;
  BAS[ATNO][  0].a[  8] =         0.688006000000;     BAS[ATNO][  0].d[  8] =         0.520282292407;
  BAS[ATNO][  0].a[  9] =         0.338495000000;     BAS[ATNO][  0].d[  9] =         0.756290021846;
  BAS[ATNO][  0].a[ 10] =         0.173543000000;     BAS[ATNO][  0].d[ 10] =         0.235999828216;
  BAS[ATNO][  0].a[ 11] =        40.925100000000;     BAS[ATNO][  0].d[ 11] =         0.000101659039;
  BAS[ATNO][  0].a[ 12] =        25.506800000000;     BAS[ATNO][  0].d[ 12] =        -0.000411805250;
  BAS[ATNO][  0].a[ 13] =        15.824100000000;     BAS[ATNO][  0].d[ 13] =         0.001274262344;
  BAS[ATNO][  0].a[ 14] =         9.868360000000;     BAS[ATNO][  0].d[ 14] =        -0.003043975437;
  BAS[ATNO][  0].a[ 15] =         6.163350000000;     BAS[ATNO][  0].d[ 15] =         0.001145504676;
  BAS[ATNO][  0].a[ 16] =         3.849710000000;     BAS[ATNO][  0].d[ 16] =         0.020120030712;
  BAS[ATNO][  0].a[ 17] =         2.353700000000;     BAS[ATNO][  0].d[ 17] =        -0.035986829035;
  BAS[ATNO][  0].a[ 18] =         1.160820000000;     BAS[ATNO][  0].d[ 18] =        -0.022707558638;
  BAS[ATNO][  0].a[ 19] =         0.688006000000;     BAS[ATNO][  0].d[ 19] =         0.029972655365;
  BAS[ATNO][  0].a[ 20] =         0.338495000000;     BAS[ATNO][  0].d[ 20] =         0.060395022744;
  BAS[ATNO][  0].a[ 21] =         0.173543000000;     BAS[ATNO][  0].d[ 21] =         0.042930658139;
  BAS[ATNO][  0].a[ 22] =         0.063102000000;     BAS[ATNO][  0].d[ 22] =        -0.050299067834;
  BAS[ATNO][  0].a[ 23] =         0.031180000000;     BAS[ATNO][  0].d[ 23] =        -0.107835267398;
  BAS[ATNO][  0].a[ 24] =         0.015078000000;     BAS[ATNO][  0].d[ 24] =        -0.033425357109;
  BAS[ATNO][  0].a[ 25] =         0.007300000000;     BAS[ATNO][  0].d[ 25] =         0.000036146161;

FINAL SINGLE POINT ENERGY       -25.095015465222

DIPOLE MOMENT
-------------
                                X             Y             Z
Electronic contribution:     -0.00000       0.00000      -0.00000
Nuclear contribution   :      0.00000       0.00000       0.00000
                        -----------------------------------------
Total Dipole Moment    :     -0.00000       0.00000      -0.00000
                        -----------------------------------------
Magnitude (a.u.)       :      0.00000
Magnitude (Debye)      :      0.00000

Rotational constants in cm-1:     0.000000     0.000000     0.000000
Rotational constants in MHz :     0.000000     0.000000     0.000000

                             ****ORCA TERMINATED NORMALLY****
TOTAL RUN TIME: 0 days 0 hours 0 minutes 1 seconds 369 msec
