                         Program Version 4.2.0 -  RELEASE  -
|  1> #
|  2> # 73_Ta CCSD(T)/aug-cc-pVQZ-PP
|  3> #
|  4> ! CCSD(T) aug-cc-pVQZ-PP tightscf slowconv
|  5>
|  6> *xyz 0 4
|  7>  Ta 0.0 0.0 0.0
|  8> *
|  9>
| 10> %maxcore 5000
| 11>
| 12> %pal
| 13> nprocs 24
| 14> end
| 15>
| 16> %method
| 17> NewNCore Ta 60 end
| 18> end
| 19>
| 20>
| 21>                          ****END OF INPUT****

CARTESIAN COORDINATES (ANGSTROEM)
---------------------------------
  Ta     0.000000    0.000000    0.000000

 Total Charge           Charge          ....    0
 Multiplicity           Mult            ....    4
 Number of Electrons    NEL             ....   13
 Basis Dimension        Dim             ....  135

ORBITAL ENERGIES
----------------
                 SPIN UP ORBITALS
  NO   OCC          E(Eh)            E(eV)
   0   1.0000      -3.211377       -87.3860
   1   1.0000      -1.828392       -49.7531
   2   1.0000      -1.828392       -49.7531
   3   1.0000      -1.828390       -49.7530
   4   1.0000      -0.328809        -8.9474
   5   1.0000      -0.328808        -8.9473
   6   1.0000      -0.328808        -8.9473
   7   1.0000      -0.284235        -7.7344
   8   0.0000       0.012964         0.3528
   9   0.0000       0.012964         0.3528
  10   0.0000       0.012964         0.3528
  11   0.0000       0.027262         0.7418
  12   0.0000       0.038758         1.0547

                 SPIN DOWN ORBITALS
  NO   OCC          E(Eh)            E(eV)
   0   1.0000      -3.113108       -84.7120
   1   1.0000      -1.673019       -45.5252
   2   1.0000      -1.673017       -45.5251
   3   1.0000      -1.673016       -45.5251
   4   1.0000      -0.218009        -5.9323
   5   0.0000       0.014619         0.3978
   6   0.0000       0.014619         0.3978
   7   0.0000       0.014619         0.3978
   8   0.0000       0.030533         0.8308
   9   0.0000       0.043942         1.1957

E(0)                                       ...    -56.745955097
E(0)                                       ...    -56.745955097
E(CORR)                                    ...     -0.361576279
E(TOT)                                     ...    -57.107531376
E(CCSD(T))                                 ...    -57.122681431

MULLIKEN ATOMIC CHARGES AND SPIN DENSITIES
------------------------------------------
   0 Ta:   -0.000000    3.000000
Sum of atomic charges       :   -0.0000000

LOEWDIN ATOMIC CHARGES AND SPIN DENSITIES
-----------------------------------------
   0 Ta:   -0.000000    3.000000

FINAL SINGLE POINT ENERGY       -57.122681430793

DIPOLE MOMENT
-------------
                                X             Y             Z
Electronic contribution:      0.00000       0.00000       0.00000
Nuclear contribution   :      0.00000       0.00000       0.00000
                        -----------------------------------------
Total Dipole Moment    :      0.00000       0.00000       0.00000
                        -----------------------------------------
Magnitude (a.u.)       :      0.00000
Magnitude (Debye)      :      0.00000

Rotational constants in cm-1:     0.000000     0.000000     0.000000
Rotational constants in MHz :     0.000000     0.000000     0.000000

                             ****ORCA TERMINATED NORMALLY****
TOTAL RUN TIME: 0 days 0 hours 5 minutes 49 seconds 261 msec
