                         Program Version 4.2.0 -  RELEASE  -
|  1> #
|  2> # 74_W CCSD(T)/aug-cc-pVQZ-PP
|  3> #
|  4> ! CCSD(T) aug-cc-pVQZ-PP tightscf veryslowconv kdiis
|  5>
|  6> *xyz 0 5
|  7>  W 0.0 0.0 0.0
|  8> *
|  9>
| 10> %maxcore 5000
| 11>
| 12> %pal
| 13> nprocs 24
| 14> end
| 15>
| 16> %method
| 17> NewNCore W 60 end
| 18> end
| 19>
| 20>
| 21>                          ****END OF INPUT****

CARTESIAN COORDINATES (ANGSTROEM)
---------------------------------
  W      0.000000    0.000000    0.000000

 Total Charge           Charge          ....    0
 Multiplicity           Mult            ....    5
 Number of Electrons    NEL             ....   14
 Basis Dimension        Dim             ....  135

ORBITAL ENERGIES
----------------
                 SPIN UP ORBITALS
  NO   OCC          E(Eh)            E(eV)
   0   1.0000      -3.476148       -94.5908
   1   1.0000      -2.031214       -55.2721
   2   1.0000      -2.031206       -55.2719
   3   1.0000      -2.000702       -54.4419
   4   1.0000      -0.380410       -10.3515
   5   1.0000      -0.380402       -10.3513
   6   1.0000      -0.361189        -9.8284
   7   1.0000      -0.361188        -9.8284
   8   1.0000      -0.306079        -8.3288
   9   0.0000       0.013130         0.3573
  10   0.0000       0.013130         0.3573
  11   0.0000       0.016073         0.4374
  12   0.0000       0.027077         0.7368
  13   0.0000       0.038887         1.0582

                 SPIN DOWN ORBITALS
  NO   OCC          E(Eh)            E(eV)
   0   1.0000      -3.328339       -90.5687
   1   1.0000      -1.825083       -49.6630
   2   1.0000      -1.780993       -48.4633
   3   1.0000      -1.780982       -48.4630
   4   1.0000      -0.229041        -6.2325
   5   0.0000       0.013387         0.3643
   6   0.0000       0.017026         0.4633
   7   0.0000       0.017027         0.4633
   8   0.0000       0.030080         0.8185
   9   0.0000       0.042240         1.1494

E(0)                                       ...    -66.684335527
E(0)                                       ...    -66.684335527
E(CORR)                                    ...     -0.407898804
E(TOT)                                     ...    -67.092234331
E(CCSD(T))                                 ...    -67.109194933

MULLIKEN ATOMIC CHARGES AND SPIN DENSITIES
------------------------------------------
   0 W :    0.000000    4.000000
Sum of atomic charges       :    0.0000000

LOEWDIN ATOMIC CHARGES AND SPIN DENSITIES
-----------------------------------------
   0 W :    0.000000    4.000000

FINAL SINGLE POINT ENERGY       -67.109194933013

DIPOLE MOMENT
-------------
                                X             Y             Z
Electronic contribution:     -0.00000      -0.00000      -0.00000
Nuclear contribution   :      0.00000       0.00000       0.00000
                        -----------------------------------------
Total Dipole Moment    :     -0.00000      -0.00000      -0.00000
                        -----------------------------------------
Magnitude (a.u.)       :      0.00000
Magnitude (Debye)      :      0.00000

Rotational constants in cm-1:     0.000000     0.000000     0.000000
Rotational constants in MHz :     0.000000     0.000000     0.000000

                             ****ORCA TERMINATED NORMALLY****
TOTAL RUN TIME: 0 days 0 hours 5 minutes 44 seconds 754 msec
