                         Program Version 4.2.0 -  RELEASE  -
|  1> #
|  2> # 75_Re CCSD(T)/aug-cc-pVQZ-PP
|  3> #
|  4> ! CCSD(T) aug-cc-pVQZ-PP tightscf slowconv
|  5>
|  6> *xyz 0 6
|  7>  Re 0.0 0.0 0.0
|  8> *
|  9>
| 10> %maxcore 5000
| 11>
| 12> %pal
| 13> nprocs 24
| 14> end
| 15>
| 16> %method
| 17> NewNCore Re 60 end
| 18> end
| 19>
| 20>
| 21>                          ****END OF INPUT****

CARTESIAN COORDINATES (ANGSTROEM)
---------------------------------
  Re     0.000000    0.000000    0.000000

 Total Charge           Charge          ....    0
 Multiplicity           Mult            ....    6
 Number of Electrons    NEL             ....   15
 Basis Dimension        Dim             ....  135

ORBITAL ENERGIES
----------------
                 SPIN UP ORBITALS
  NO   OCC          E(Eh)            E(eV)
   0   1.0000      -3.777360      -102.7872
   1   1.0000      -2.249414       -61.2097
   2   1.0000      -2.249414       -61.2097
   3   1.0000      -2.249414       -61.2097
   4   1.0000      -0.442335       -12.0365
   5   1.0000      -0.442335       -12.0365
   6   1.0000      -0.442335       -12.0365
   7   1.0000      -0.442335       -12.0365
   8   1.0000      -0.442335       -12.0365
   9   1.0000      -0.327027        -8.8989
  10   0.0000       0.014863         0.4044
  11   0.0000       0.014863         0.4044
  12   0.0000       0.014863         0.4044
  13   0.0000       0.028745         0.7822
  14   0.0000       0.042974         1.1694

                 SPIN DOWN ORBITALS
  NO   OCC          E(Eh)            E(eV)
   0   1.0000      -3.564757       -97.0020
   1   1.0000      -1.936165       -52.6857
   2   1.0000      -1.936165       -52.6857
   3   1.0000      -1.936165       -52.6857
   4   1.0000      -0.223635        -6.0854
   5   0.0000       0.016476         0.4483
   6   0.0000       0.016476         0.4483
   7   0.0000       0.016476         0.4483
   8   0.0000       0.033932         0.9233
   9   0.0000       0.051992         1.4148

E(0)                                       ...    -77.838420802
E(0)                                       ...    -77.838420802
E(CORR)                                    ...     -0.451271783
E(TOT)                                     ...    -78.289692585
E(CCSD(T))                                 ...    -78.307449365

MULLIKEN ATOMIC CHARGES AND SPIN DENSITIES
------------------------------------------
   0 Re:   -0.000000    5.000000
Sum of atomic charges       :   -0.0000000

LOEWDIN ATOMIC CHARGES AND SPIN DENSITIES
-----------------------------------------
   0 Re:   -0.000000    5.000000

FINAL SINGLE POINT ENERGY       -78.307449365455

DIPOLE MOMENT
-------------
                                X             Y             Z
Electronic contribution:     -0.00000      -0.00000       0.00000
Nuclear contribution   :      0.00000       0.00000       0.00000
                        -----------------------------------------
Total Dipole Moment    :     -0.00000      -0.00000       0.00000
                        -----------------------------------------
Magnitude (a.u.)       :      0.00000
Magnitude (Debye)      :      0.00000

Rotational constants in cm-1:     0.000000     0.000000     0.000000
Rotational constants in MHz :     0.000000     0.000000     0.000000

                             ****ORCA TERMINATED NORMALLY****
TOTAL RUN TIME: 0 days 0 hours 4 minutes 19 seconds 978 msec
