                         Program Version 4.2.0 -  RELEASE  -
|  1> #
|  2> # 76_Os CCSD(T)/aug-cc-pVQZ-PP
|  3> #
|  4> ! CCSD(T) aug-cc-pVQZ-PP tightscf slowconv
|  5>
|  6> *xyz 0 5
|  7>  Os 0.0 0.0 0.0
|  8> *
|  9>
| 10> %maxcore 5000
| 11>
| 12> %pal
| 13> nprocs 24
| 14> end
| 15>
| 16> %method
| 17> NewNCore Os 60 end
| 18> end
| 19>
| 20>
| 21>                          ****END OF INPUT****

CARTESIAN COORDINATES (ANGSTROEM)
---------------------------------
  Os     0.000000    0.000000    0.000000

 Total Charge           Charge          ....    0
 Multiplicity           Mult            ....    5
 Number of Electrons    NEL             ....   16
 Basis Dimension        Dim             ....  135

ORBITAL ENERGIES
----------------
                 SPIN UP ORBITALS
  NO   OCC          E(Eh)            E(eV)
   0   1.0000      -4.042162      -109.9928
   1   1.0000      -2.436922       -66.3120
   2   1.0000      -2.428467       -66.0819
   3   1.0000      -2.384442       -64.8840
   4   1.0000      -0.500555       -13.6208
   5   1.0000      -0.500340       -13.6150
   6   1.0000      -0.485163       -13.2020
   7   1.0000      -0.481879       -13.1126
   8   1.0000      -0.442472       -12.0403
   9   1.0000      -0.325746        -8.8640
  10   0.0000       0.015202         0.4137
  11   0.0000       0.015732         0.4281
  12   0.0000       0.017378         0.4729
  13   0.0000       0.031944         0.8692
  14   0.0000       0.043954         1.1960

                 SPIN DOWN ORBITALS
  NO   OCC          E(Eh)            E(eV)
   0   1.0000      -3.851195      -104.7963
   1   1.0000      -2.166186       -58.9449
   2   1.0000      -2.133841       -58.0648
   3   1.0000      -2.127934       -57.9040
   4   1.0000      -0.343382        -9.3439
   5   1.0000      -0.247658        -6.7391
   6   0.0000       0.016629         0.4525
   7   0.0000       0.016734         0.4553
   8   0.0000       0.017542         0.4774
   9   0.0000       0.036200         0.9851
  10   0.0000       0.051627         1.4048

E(0)                                       ...    -90.071444817
E(0)                                       ...    -90.071444817
E(CORR)                                    ...     -0.519945544
E(TOT)                                     ...    -90.591390361
E(CCSD(T))                                 ...    -90.612687136

MULLIKEN ATOMIC CHARGES AND SPIN DENSITIES
------------------------------------------
   0 Os:    0.000000    4.000000
Sum of atomic charges       :    0.0000000

LOEWDIN ATOMIC CHARGES AND SPIN DENSITIES
-----------------------------------------
   0 Os:   -0.000000    4.000000

FINAL SINGLE POINT ENERGY       -90.612687136142

DIPOLE MOMENT
-------------
                                X             Y             Z
Electronic contribution:     -0.00000       0.00000       0.00000
Nuclear contribution   :      0.00000       0.00000       0.00000
                        -----------------------------------------
Total Dipole Moment    :     -0.00000       0.00000       0.00000
                        -----------------------------------------
Magnitude (a.u.)       :      0.00000
Magnitude (Debye)      :      0.00000

Rotational constants in cm-1:     0.000000     0.000000     0.000000
Rotational constants in MHz :     0.000000     0.000000     0.000000

                             ****ORCA TERMINATED NORMALLY****
TOTAL RUN TIME: 0 days 0 hours 7 minutes 21 seconds 60 msec
