                         Program Version 4.2.0 -  RELEASE  -
|  1> #
|  2> # 77_Ir CCSD(T)/aug-cc-pVQZ-PP
|  3> #
|  4> ! CCSD(T) aug-cc-pVQZ-PP tightscf slowconv
|  5>
|  6> *xyz 0 4
|  7>  Ir 0.0 0.0 0.0
|  8> *
|  9>
| 10> %maxcore 5000
| 11>
| 12> %pal
| 13> nprocs 24
| 14> end
| 15>
| 16> %method
| 17> NewNCore Ir 60 end
| 18> end
| 19>
| 20>
| 21>                          ****END OF INPUT****

CARTESIAN COORDINATES (ANGSTROEM)
---------------------------------
  Ir     0.000000    0.000000    0.000000

 Total Charge           Charge          ....    0
 Multiplicity           Mult            ....    4
 Number of Electrons    NEL             ....   17
 Basis Dimension        Dim             ....  135

ORBITAL ENERGIES
----------------
                 SPIN UP ORBITALS
  NO   OCC          E(Eh)            E(eV)
   0   1.0000      -4.159758      -113.1928
   1   1.0000      -2.435613       -66.2764
   2   1.0000      -2.435613       -66.2764
   3   1.0000      -2.435613       -66.2764
   4   1.0000      -0.430035       -11.7019
   5   1.0000      -0.430035       -11.7019
   6   1.0000      -0.391138       -10.6434
   7   1.0000      -0.391138       -10.6434
   8   1.0000      -0.391138       -10.6434
   9   1.0000      -0.292436        -7.9576
  10   0.0000       0.018376         0.5000
  11   0.0000       0.018376         0.5000
  12   0.0000       0.018376         0.5000
  13   0.0000       0.035460         0.9649
  14   0.0000       0.055006         1.4968

                 SPIN DOWN ORBITALS
  NO   OCC          E(Eh)            E(eV)
   0   1.0000      -4.058244      -110.4304
   1   1.0000      -2.297879       -62.5285
   2   1.0000      -2.297879       -62.5285
   3   1.0000      -2.297879       -62.5285
   4   1.0000      -0.338306        -9.2058
   5   1.0000      -0.338306        -9.2058
   6   1.0000      -0.338306        -9.2058
   7   0.0000      -0.003502        -0.0953
   8   0.0000       0.022794         0.6203
   9   0.0000       0.022794         0.6203
  10   0.0000       0.022794         0.6203
  11   0.0000       0.060237         1.6391

E(0)                                       ...   -103.617995801
E(0)                                       ...   -103.617995801
E(CORR)                                    ...     -0.582643486
E(TOT)                                     ...   -104.200639287
E(CCSD(T))                                 ...   -104.224035181

MULLIKEN ATOMIC CHARGES AND SPIN DENSITIES
------------------------------------------
   0 Ir:   -0.000000    3.000000
Sum of atomic charges       :   -0.0000000

LOEWDIN ATOMIC CHARGES AND SPIN DENSITIES
-----------------------------------------
   0 Ir:   -0.000000    3.000000

FINAL SINGLE POINT ENERGY      -104.224035181422

DIPOLE MOMENT
-------------
                                X             Y             Z
Electronic contribution:      0.00000       0.00000      -0.00000
Nuclear contribution   :      0.00000       0.00000       0.00000
                        -----------------------------------------
Total Dipole Moment    :      0.00000       0.00000      -0.00000
                        -----------------------------------------
Magnitude (a.u.)       :      0.00000
Magnitude (Debye)      :      0.00000

Rotational constants in cm-1:     0.000000     0.000000     0.000000
Rotational constants in MHz :     0.000000     0.000000     0.000000

                             ****ORCA TERMINATED NORMALLY****
TOTAL RUN TIME: 0 days 0 hours 4 minutes 52 seconds 336 msec
