                         Program Version 4.2.0 -  RELEASE  -
|  1> #
|  2> # 78_Pt CCSD(T)/aug-cc-pVQZ-PP
|  3> #
|  4> ! CCSD(T) aug-cc-pVQZ-PP tightscf veryslowconv kdiis
|  5>
|  6> *xyz 0 3
|  7>  Pt 0.0 0.0 0.0
|  8> *
|  9>
| 10> %maxcore 5000
| 11>
| 12> %pal
| 13> nprocs 24
| 14> end
| 15>
| 16> %method
| 17> NewNCore Pt 60 end
| 18> end
| 19>
| 20>
| 21>                          ****END OF INPUT****

CARTESIAN COORDINATES (ANGSTROEM)
---------------------------------
  Pt     0.000000    0.000000    0.000000

 Total Charge           Charge          ....    0
 Multiplicity           Mult            ....    3
 Number of Electrons    NEL             ....   18
 Basis Dimension        Dim             ....  135

ORBITAL ENERGIES
----------------
                 SPIN UP ORBITALS
  NO   OCC          E(Eh)            E(eV)
   0   1.0000      -4.415472      -120.1511
   1   1.0000      -2.606176       -70.9177
   2   1.0000      -2.606132       -70.9164
   3   1.0000      -2.551992       -69.4432
   4   1.0000      -0.481107       -13.0916
   5   1.0000      -0.439142       -11.9497
   6   1.0000      -0.419756       -11.4221
   7   1.0000      -0.419743       -11.4218
   8   1.0000      -0.415767       -11.3136
   9   1.0000      -0.290470        -7.9041
  10   0.0000       0.017788         0.4840
  11   0.0000       0.017789         0.4841
  12   0.0000       0.019666         0.5351
  13   0.0000       0.038265         1.0412
  14   0.0000       0.053461         1.4548

                 SPIN DOWN ORBITALS
  NO   OCC          E(Eh)            E(eV)
   0   1.0000      -4.358273      -118.5946
   1   1.0000      -2.539508       -69.1035
   2   1.0000      -2.502447       -68.0950
   3   1.0000      -2.502413       -68.0941
   4   1.0000      -0.417481       -11.3602
   5   1.0000      -0.383136       -10.4257
   6   1.0000      -0.383107       -10.4249
   7   1.0000      -0.371122       -10.0987
   8   0.0000      -0.008051        -0.2191
   9   0.0000       0.021891         0.5957
  10   0.0000       0.021892         0.5957
  11   0.0000       0.022514         0.6126
  12   0.0000       0.059383         1.6159

E(0)                                       ...   -118.516203265
E(0)                                       ...   -118.516203265
E(CORR)                                    ...     -0.648213427
E(TOT)                                     ...   -119.164416692
E(CCSD(T))                                 ...   -119.190726200

MULLIKEN ATOMIC CHARGES AND SPIN DENSITIES
------------------------------------------
   0 Pt:    0.000000    2.000000
Sum of atomic charges       :    0.0000000

LOEWDIN ATOMIC CHARGES AND SPIN DENSITIES
-----------------------------------------
   0 Pt:    0.000000    2.000000

FINAL SINGLE POINT ENERGY      -119.190726199614

DIPOLE MOMENT
-------------
                                X             Y             Z
Electronic contribution:      0.00000       0.00000       0.00000
Nuclear contribution   :      0.00000       0.00000       0.00000
                        -----------------------------------------
Total Dipole Moment    :      0.00000       0.00000       0.00000
                        -----------------------------------------
Magnitude (a.u.)       :      0.00000
Magnitude (Debye)      :      0.00000

Rotational constants in cm-1:     0.000000     0.000000     0.000000
Rotational constants in MHz :     0.000000     0.000000     0.000000

                             ****ORCA TERMINATED NORMALLY****
TOTAL RUN TIME: 0 days 0 hours 5 minutes 40 seconds 567 msec
