                         Program Version 4.2.0 -  RELEASE  -
|  1> #
|  2> # 79_Au CCSD(T)/aug-cc-pVQZ-PP
|  3> #
|  4> ! CCSD(T) aug-cc-pVQZ-PP tightscf slowconv
|  5>
|  6> *xyz 0 2
|  7>  Au 0.0 0.0 0.0
|  8> *
|  9>
| 10> %maxcore 5000
| 11>
| 12> %pal
| 13> nprocs 24
| 14> end
| 15>
| 16> %method
| 17> NewNCore Au 60 end
| 18> end
| 19>
| 20>
| 21>                          ****END OF INPUT****

CARTESIAN COORDINATES (ANGSTROEM)
---------------------------------
  Au     0.000000    0.000000    0.000000

 Total Charge           Charge          ....    0
 Multiplicity           Mult            ....    2
 Number of Electrons    NEL             ....   19
 Basis Dimension        Dim             ....  135

ORBITAL ENERGIES
----------------
                 SPIN UP ORBITALS
  NO   OCC          E(Eh)            E(eV)
   0   1.0000      -4.662211      -126.8652
   1   1.0000      -2.725656       -74.1689
   2   1.0000      -2.725656       -74.1689
   3   1.0000      -2.725656       -74.1689
   4   1.0000      -0.456457       -12.4208
   5   1.0000      -0.456457       -12.4208
   6   1.0000      -0.456457       -12.4208
   7   1.0000      -0.456457       -12.4208
   8   1.0000      -0.456457       -12.4208
   9   1.0000      -0.292239        -7.9522
  10   0.0000       0.019762         0.5377
  11   0.0000       0.019762         0.5377
  12   0.0000       0.019762         0.5377
  13   0.0000       0.040597         1.1047
  14   0.0000       0.059979         1.6321

                 SPIN DOWN ORBITALS
  NO   OCC          E(Eh)            E(eV)
   0   1.0000      -4.660422      -126.8165
   1   1.0000      -2.729619       -74.2767
   2   1.0000      -2.729619       -74.2767
   3   1.0000      -2.729619       -74.2767
   4   1.0000      -0.448091       -12.1932
   5   1.0000      -0.448091       -12.1932
   6   1.0000      -0.448091       -12.1932
   7   1.0000      -0.448091       -12.1932
   8   1.0000      -0.448091       -12.1932
   9   0.0000      -0.012732        -0.3464
  10   0.0000       0.023347         0.6353
  11   0.0000       0.023347         0.6353
  12   0.0000       0.023347         0.6353
  13   0.0000       0.058223         1.5843

E(0)                                       ...   -134.781801336
E(0)                                       ...   -134.781801336
E(CORR)                                    ...     -0.706908132
E(TOT)                                     ...   -135.488709468
E(CCSD(T))                                 ...   -135.516707246

MULLIKEN ATOMIC CHARGES AND SPIN DENSITIES
------------------------------------------
   0 Au:    0.000000    1.000000
Sum of atomic charges       :    0.0000000

LOEWDIN ATOMIC CHARGES AND SPIN DENSITIES
-----------------------------------------
   0 Au:   -0.000000    1.000000

FINAL SINGLE POINT ENERGY      -135.516707246234

DIPOLE MOMENT
-------------
                                X             Y             Z
Electronic contribution:     -0.00000      -0.00000       0.00000
Nuclear contribution   :      0.00000       0.00000       0.00000
                        -----------------------------------------
Total Dipole Moment    :     -0.00000      -0.00000       0.00000
                        -----------------------------------------
Magnitude (a.u.)       :      0.00000
Magnitude (Debye)      :      0.00000

Rotational constants in cm-1:     0.000000     0.000000     0.000000
Rotational constants in MHz :     0.000000     0.000000     0.000000

                             ****ORCA TERMINATED NORMALLY****
TOTAL RUN TIME: 0 days 0 hours 4 minutes 40 seconds 45 msec
