                         Program Version 4.2.0 -  RELEASE  -
|  1> #
|  2> # 80_Hg CCSD(T)/aug-cc-pVQZ-PP
|  3> #
|  4> ! CCSD(T) aug-cc-pVQZ-PP tightscf slowconv
|  5>
|  6> *xyz 0 1
|  7>  Hg 0.0 0.0 0.0
|  8> *
|  9>
| 10> %maxcore 5000
| 11>
| 12> %pal
| 13> nprocs 24
| 14> end
| 15>
| 16> %method
| 17> NewNCore Hg 60 end
| 18> end
| 19>
| 20>
| 21>                          ****END OF INPUT****

CARTESIAN COORDINATES (ANGSTROEM)
---------------------------------
  Hg     0.000000    0.000000    0.000000

 Total Charge           Charge          ....    0
 Multiplicity           Mult            ....    1
 Number of Electrons    NEL             ....   20
 Basis Dimension        Dim             ....  135

ORBITAL ENERGIES
----------------

  NO   OCC          E(Eh)            E(eV)
   0   2.0000      -5.067284      -137.8878
   1   2.0000      -3.033911       -82.5569
   2   2.0000      -3.033911       -82.5569
   3   2.0000      -3.033911       -82.5569
   4   2.0000      -0.602406       -16.3923
   5   2.0000      -0.602406       -16.3923
   6   2.0000      -0.602406       -16.3923
   7   2.0000      -0.602406       -16.3923
   8   2.0000      -0.602406       -16.3923
   9   2.0000      -0.326622        -8.8878
  10   0.0000       0.020469         0.5570
  11   0.0000       0.020469         0.5570
  12   0.0000       0.020469         0.5570
  13   0.0000       0.041004         1.1158
  14   0.0000       0.061049         1.6612

E(0)                                       ...   -152.540832582
E(0)                                       ...   -152.540832582
E(CORR)                                    ...     -0.768556018
E(TOT)                                     ...   -153.309388600
E(CCSD(T))                                 ...   -153.339379733

MULLIKEN ATOMIC CHARGES
-----------------------
   0 Hg:   -0.000000
Sum of atomic charges:   -0.0000000

LOEWDIN ATOMIC CHARGES
----------------------
   0 Hg:   -0.000000

FINAL SINGLE POINT ENERGY      -153.339379733305

DIPOLE MOMENT
-------------
                                X             Y             Z
Electronic contribution:     -0.00000      -0.00000       0.00000
Nuclear contribution   :      0.00000       0.00000       0.00000
                        -----------------------------------------
Total Dipole Moment    :     -0.00000      -0.00000       0.00000
                        -----------------------------------------
Magnitude (a.u.)       :      0.00000
Magnitude (Debye)      :      0.00000

Rotational constants in cm-1:     0.000000     0.000000     0.000000
Rotational constants in MHz :     0.000000     0.000000     0.000000

                             ****ORCA TERMINATED NORMALLY****
TOTAL RUN TIME: 0 days 0 hours 3 minutes 13 seconds 597 msec
