                         Program Version 4.2.0 -  RELEASE  -
|  1> # input to generate an atomic fitting density for Tl
|  2> # this file is use internally by ORCA
|  3> #
|  4> # atomic ground state (S=2): 1s2 2s2 2p6 3s2 3p6 4s2 3d10 4p6 5s2 4d10 5p6 6s2 4f14 5d10 6p1
|  5> #
|  6> ! RHF AllowRHF def2-SVP def2/J  NoMulliken NoLoewdin NoMayer NoPrintMOs
|  7>
|  8> %output print[p_atomdensfit] 2 end
|  9>
| 10> %scf
| 11>   guess hcore
| 12>   maxiter 1000
| 13>   maxdisk 500000
| 14>   SCFMode Conventional
| 15>   lshift 1.000000
| 16>   hftyp rohf
| 17>   rohf_case sahf
| 18>   rohf_numop   2
| 19>   rohf_norb[1] 3
| 20>   rohf_nel[1]  1
| 21> end
| 22>
| 23> %basis
| 24>   NewECP 81
| 25>     N_core 60
| 26>     lmax h
| 27>     s 2
| 28>       1      12.1678050000    281.2846630000  2
| 29>       2       8.2949090000     62.4342510000  2
| 30>     p 4
| 31>       1       7.1514920000      4.6334080000  2
| 32>       2       5.1728650000      9.3417560000  2
| 33>       3       9.8910720000     72.2992530000  2
| 34>       4       9.0033910000    144.5580370000  2
| 35>     d 4
| 36>       1       7.1302180000     35.9430390000  2
| 37>       2       6.9269060000     53.9095930000  2
| 38>       3       5.4175700000     10.3819390000  2
| 39>       4       5.1386810000     15.5838220000  2
| 40>     f 4
| 41>       1       5.6263990000     15.8254880000  2
| 42>       2       5.5489520000     21.1040210000  2
| 43>       3       2.8749460000      2.9151270000  2
| 44>       4       2.8214510000      3.8969030000  2
| 45>     g 4
| 46>       1       6.6790570000     -7.4945340000  2
| 47>       2       6.7068350000     -9.5405750000  2
| 48>       3       7.2092840000     -7.7979920000  2
| 49>       4       7.0709640000     -9.2595240000  2
| 50>     h 1
| 51>       1       1.0000000000      0.0000000000  2
| 52>   end
| 53>   NewGTO 81
| 54>     s 10
| 55>      1    9675.5500000000      0.0000087391
| 56>      2    1471.4800000000      0.0000622664
| 57>      3     323.6480000000      0.0002479732
| 58>      4      33.8079000000      0.0236677874
| 59>      5      21.1316000000     -0.2139965179
| 60>      6      13.2091000000      0.7358577948
| 61>      7       8.2561100000     -0.6244948794
| 62>      8       5.1001400000     -0.6689203193
| 63>      9       1.8194300000      0.8297205737
| 64>     10       0.9669850000      0.6672402188
| 65>     s 10
| 66>      1    9675.5500000000      0.0000047039
| 67>      2    1471.4800000000      0.0000360634
| 68>      3     323.6480000000      0.0001567975
| 69>      4      33.8079000000      0.0120639998
| 70>      5      21.1316000000     -0.1152869311
| 71>      6      13.2091000000      0.4219044455
| 72>      7       8.2561100000     -0.4068315017
| 73>      8       5.1001400000     -0.3592309162
| 74>      9       1.8194300000      0.6368612765
| 75>     10       0.9669850000      0.6857899369
| 76>     s 1
| 77>      1       0.4663510000      1.0000000000
| 78>     s 1
| 79>      1       0.2295180000      1.0000000000
| 80>     s 1
| 81>      1       0.1040710000      1.0000000000
| 82>     s 1
| 83>      1       0.0461250000      1.0000000000
| 84>     s 1
| 85>      1       0.0159000000      1.0000000000
| 86>     p 7
| 87>      1      42.5240000000      0.0016380010
| 88>      2      21.3957000000     -0.0236351802
| 89>      3      13.3737000000      0.1140354837
| 90>      4       6.6133700000     -0.3535959307
| 91>      5       2.0421700000      0.4848411404
| 92>      6       1.1144900000      0.4963347022
| 93>      7       0.5980060000      0.2093569340
| 94>     p 7
| 95>      1      42.5240000000     -0.0004181803
| 96>      2      21.3957000000      0.0124006533
| 97>      3      13.3737000000     -0.0776625092
| 98>      4       6.6133700000      0.2757030334
| 99>      5       2.0421700000     -0.4732932097
|100>      6       1.1144900000     -0.4567976065
|101>      7       0.5980060000     -0.2404021853
|102>     p 1
|103>      1       0.3003370000      1.0000000000
|104>     p 1
|105>      1       0.1297770000      1.0000000000
|106>     p 1
|107>      1       0.0564350000      1.0000000000
|108>     p 1
|109>      1       0.0244930000      1.0000000000
|110>     p 1
|111>      1       0.0081000000      1.0000000000
|112>   end
|113>   NewAuxGTO 81
|114>     S 1
|115>      1 1310.72 1.0
|116>     S 1
|117>      1  655.36 1.0
|118>     S 1
|119>      1  327.68 1.0
|120>     S 1
|121>      1  163.84 1.0
|122>     S 1
|123>      1   81.82 1.0
|124>     S 1
|125>      1   40.96 1.0
|126>     S 1
|127>      1   20.48 1.0
|128>     S 1
|129>      1   10.24 1.0
|130>     S 1
|131>      1    5.12 1.0
|132>     S 1
|133>      1    2.56 1.0
|134>     S 1
|135>      1    1.28 1.0
|136>     S 1
|137>      1    0.64 1.0
|138>     S 1
|139>      1    0.32 1.0
|140>     S 1
|141>      1    0.16 1.0
|142>     S 1
|143>      1    0.08 1.0
|144>     S 1
|145>      1    0.04 1.0
|146>     S 1
|147>      1    0.02 1.0
|148>     S 1
|149>      1    0.01 1.0
|150>   end
|151> end
|152>
|153> * xyz 0 2
|154> 81  0.0 0.0 0.0
|155> *
|156>
|157>
|158>                          ****END OF INPUT****

CARTESIAN COORDINATES (ANGSTROEM)
---------------------------------
  Tl     0.000000    0.000000    0.000000

 Total Charge           Charge          ....    0
 Multiplicity           Mult            ....    2
 Number of Electrons    NEL             ....   21
 Basis Dimension        Dim             ....   28

ORBITAL ENERGIES
----------------

  NO   OCC          E(Eh)            E(eV)
   0   2.0000      -8.618377      -234.5180
   1   2.0000      -6.143423      -167.1710
   2   2.0000      -6.143423      -167.1710
   3   2.0000      -6.135629      -166.9590
   4   2.0000      -2.081081       -56.6291
   5   2.0000      -1.263978       -34.3946
   6   2.0000      -1.263978       -34.3946
   7   2.0000      -1.246510       -33.9193
   8   2.0000      -0.362573        -9.8661
   9   2.0000      -0.174468        -4.7475
  10   0.3333      -0.190226        -5.1763
  11   0.3333      -0.190226        -5.1763
  12   0.3333      -0.079507        -2.1635
  13   0.0000      -0.054282        -1.4771
  14   0.0000      -0.054282        -1.4771
  15   0.0000      -0.048228        -1.3124
  16   0.0000       0.010329         0.2811
  17   0.0000       0.010329         0.2811

CleanUpVectors: The p-vectors have cracked symmetry
CleanUpVectors: The p-vectors have cracked symmetry
CleanUpVectors: The p-vectors have cracked symmetry
CleanUpVectors: The p-vectors have cracked symmetry
CleanUpVectors: The p-vectors have cracked symmetry
CleanUpVectors: The p-vectors have cracked symmetry
CleanUpVectors: The p-vectors have cracked symmetry
CleanUpVectors: The p-vectors have cracked symmetry
CleanUpVectors: The p-vectors have cracked symmetry
CleanUpVectors: The p-vectors have cracked symmetry
CleanUpVectors: The p-vectors have cracked symmetry
CleanUpVectors: The p-vectors have cracked symmetry
CleanUpVectors: The p-vectors have cracked symmetry
CleanUpVectors: The p-vectors have cracked symmetry
CleanUpVectors: The p-vectors have cracked symmetry
CleanUpVectors: The p-vectors have cracked symmetry
CleanUpVectors: The p-vectors have cracked symmetry
CleanUpVectors: The p-vectors have cracked symmetry
CleanUpVectors: The p-vectors have cracked symmetry
CleanUpVectors: The p-vectors have cracked symmetry
--------------------------
ATOM BASIS FOR ELEMENT Tl
--------------------------
 NewGTO Tl
 S 25
    1       9675.549999999999         0.000007016474
    2       1471.480000000000         0.000049992626
    3        323.648000000000         0.000199093436
    4         33.807900000000         0.019002461175
    5         21.131600000000        -0.171814139372
    6         13.209100000000         0.590807621330
    7          8.256110000000        -0.501396243729
    8          5.100140000000        -0.537064668606
    9          1.819430000000         0.666168439039
   10          0.966985000000         0.535715744687
   11       9675.549999999999         0.000001484405
   12       1471.480000000000         0.000011380492
   13        323.648000000000         0.000049480436
   14         33.807900000000         0.003807024795
   15         21.131600000000        -0.036380985785
   16         13.209100000000         0.133139979422
   17          8.256110000000        -0.128383425068
   18          5.100140000000        -0.113362154158
   19          1.819430000000         0.200973699501
   20          0.966985000000         0.216414069728
   21          0.466351000000        -0.222947521203
   22          0.229518000000         0.161672575009
   23          0.104071000000        -0.082417244499
   24          0.046125000000         0.031817185673
   25          0.015900000000        -0.006605772824
 P 44
    1         42.524000000000        -0.001351505851
    2         21.395700000000         0.019501260578
    3         13.373700000000        -0.094090066755
    4          6.613370000000         0.291750108337
    5          2.042170000000        -0.400039827828
    6          1.114490000000        -0.409523104102
    7          0.598006000000        -0.172739284795
    8         42.524000000000        -0.000245354996
    9         21.395700000000         0.003540296706
   10         13.373700000000        -0.017081293388
   11          6.613370000000         0.052964881081
   12          2.042170000000        -0.072624006994
   13          1.114490000000        -0.074345619380
   14          0.598006000000        -0.031359425123
   15         42.524000000000        -0.000032134810
   16         21.395700000000         0.000463682269
   17         13.373700000000        -0.002237183361
   18          6.613370000000         0.006936954244
   19          2.042170000000        -0.009511763328
   20          1.114490000000        -0.009737247575
   21          0.598006000000        -0.004107229031
   22         42.524000000000        -0.000102488995
   23         21.395700000000         0.003039192653
   24         13.373700000000        -0.019033781662
   25          6.613370000000         0.067570200802
   26          2.042170000000        -0.115996247206
   27          1.114490000000        -0.111953450843
   28          0.598006000000        -0.058918553538
   29         42.524000000000        -0.000018606051
   30         21.395700000000         0.000551740935
   31         13.373700000000        -0.003455429676
   32          6.613370000000         0.012266825437
   33          2.042170000000        -0.021058183917
   34          1.114490000000        -0.020324246816
   35          0.598006000000        -0.010696188596
   36         42.524000000000        -0.000002436885
   37         21.395700000000         0.000072263008
   38         13.373700000000        -0.000452567004
   39          6.613370000000         0.001606619425
   40          2.042170000000        -0.002758047508
   41          1.114490000000        -0.002661921774
   42          0.598006000000        -0.001400908854
   43          0.300337000000         0.201384818227
   44          0.300337000000         0.036559790876
 S 25
    1       9675.549999999999        -0.000005561949
    2       1471.480000000000        -0.000039629085
    3        323.648000000000        -0.000157821087
    4         33.807900000000        -0.015063224310
    5         21.131600000000         0.136196827201
    6         13.209100000000        -0.468332372442
    7          8.256110000000         0.397456098874
    8          5.100140000000         0.425730409226
    9          1.819430000000        -0.528070786898
   10          0.966985000000        -0.424661119129
   11       9675.549999999999         0.000010298929
   12       1471.480000000000         0.000078958818
   13        323.648000000000         0.000343299447
   14         33.807900000000         0.026413459796
   15         21.131600000000        -0.252414354285
   16         13.209100000000         0.923736430182
   17          8.256110000000        -0.890735054049
   18          5.100140000000        -0.786516206882
   19          1.819430000000         1.394372513373
   20          0.966985000000         1.501499107021
   21          0.466351000000        -1.417742269685
   22          0.229518000000        -0.429836015051
   23          0.104071000000        -0.070063601546
   24          0.046125000000         0.024003704672
   25          0.015900000000        -0.005232989705
 P 44
    1         42.524000000000         0.000803562254
    2         21.395700000000        -0.011594827274
    3         13.373700000000         0.055942951372
    4          6.613370000000        -0.173465304962
    5          2.042170000000         0.237850916754
    6          1.114490000000         0.243489370225
    7          0.598006000000         0.102705266801
    8         42.524000000000         0.000144912424
    9         21.395700000000        -0.002090982390
   10         13.373700000000         0.010088613084
   11          6.613370000000        -0.031282302817
   12          2.042170000000         0.042893444339
   13          1.114490000000         0.043910269052
   14          0.598006000000         0.018521613055
   15         42.524000000000         0.000000002177
   16         21.395700000000        -0.000000031413
   17         13.373700000000         0.000000151563
   18          6.613370000000        -0.000000469958
   19          2.042170000000         0.000000644394
   20          1.114490000000         0.000000659670
   21          0.598006000000         0.000000278253
   22         42.524000000000        -0.000522807820
   23         21.395700000000         0.015503261423
   24         13.373700000000        -0.097093447721
   25          6.613370000000         0.344683146807
   26          2.042170000000        -0.591709822232
   27          1.114490000000        -0.571087066111
   28          0.598006000000        -0.300550127094
   29         42.524000000000        -0.000094281865
   30         21.395700000000         0.002795819709
   31         13.373700000000        -0.017509591522
   32          6.613370000000         0.062159303710
   33          2.042170000000        -0.106707481607
   34          1.114490000000        -0.102988424923
   35          0.598006000000        -0.054200464407
   36         42.524000000000        -0.000000001416
   37         21.395700000000         0.000000042002
   38         13.373700000000        -0.000000263049
   39          6.613370000000         0.000000933828
   40          2.042170000000        -0.000001603081
   41          1.114490000000        -0.000001547209
   42          0.598006000000        -0.000000814261
   43          0.300337000000         1.447970809147
   44          0.300337000000         0.261123464036
 S 25
    1       9675.549999999999        -0.000002490516
    2       1471.480000000000        -0.000017745017
    3        323.648000000000        -0.000070668750
    4         33.807900000000        -0.006744974658
    5         21.131600000000         0.060985890475
    6         13.209100000000        -0.209708752830
    7          8.256110000000         0.177971944081
    8          5.100140000000         0.190632547340
    9          1.819430000000        -0.236458277588
   10          0.966985000000        -0.190153743171
   11       9675.549999999999         0.000003402066
   12       1471.480000000000         0.000026082627
   13        323.648000000000         0.000113402806
   14         33.807900000000         0.008725211965
   15         21.131600000000        -0.083380547692
   16         13.209100000000         0.305139736170
   17          8.256110000000        -0.294238324384
   18          5.100140000000        -0.259811500358
   19          1.819430000000         0.460605911980
   20          0.966985000000         0.495993257823
   21          0.466351000000        -0.655374185686
   22          0.229518000000        -0.174415986981
   23          0.104071000000         0.209159101776
   24          0.046125000000         1.482206353155
   25          0.015900000000        -1.782894596256
 S 25
    1       9675.549999999999        -0.000002971871
    2       1471.480000000000        -0.000021174685
    3        323.648000000000        -0.000084327254
    4         33.807900000000        -0.008048609752
    5         21.131600000000         0.072772939513
    6         13.209100000000        -0.250240215667
    7          8.256110000000         0.212369474657
    8          5.100140000000         0.227477056230
    9          1.819430000000        -0.282159755285
   10          0.966985000000        -0.226905711177
   11       9675.549999999999         0.000004530606
   12       1471.480000000000         0.000034734807
   13        323.648000000000         0.000151021006
   14         33.807900000000         0.011619556343
   15         21.131600000000        -0.111039706043
   16         13.209100000000         0.406361286224
   17          8.256110000000        -0.391843636801
   18          5.100140000000        -0.345996679379
   19          1.819430000000         0.613399005924
   20          0.966985000000         0.660525111338
   21          0.466351000000        -0.134481475288
   22          0.229518000000        -3.513180124246
   23          0.104071000000         7.123409463552
   24          0.046125000000        -5.684388487825
   25          0.015900000000         1.766037575960
 S 25
    1       9675.549999999999        -0.000023064311
    2       1471.480000000000        -0.000164334043
    3        323.648000000000        -0.000654453099
    4         33.807900000000        -0.062464237322
    5         21.131600000000         0.564781534255
    6         13.209100000000        -1.942082508719
    7          8.256110000000         1.648172501043
    8          5.100140000000         1.765420521491
    9          1.819430000000        -2.189805998787
   10          0.966985000000        -1.760986385144
   11       9675.549999999999         0.000026776434
   12       1471.480000000000         0.000205286942
   13        323.648000000000         0.000892552541
   14         33.807900000000         0.068672993347
   15         21.131600000000        -0.656258188303
   16         13.209100000000         2.401644699872
   17          8.256110000000        -2.315843623409
   18          5.100140000000        -2.044882520495
   19          1.819430000000         3.625262842271
   20          0.966985000000         3.903783865633
   21          0.466351000000        -9.690296221786
   22          0.229518000000        12.531033404303
   23          0.104071000000        -8.716508532396
   24          0.046125000000         3.657874564157
   25          0.015900000000        -0.743082140998
 P 44
    1         42.524000000000        -0.000147269746
    2         21.395700000000         0.002124996866
    3         13.373700000000        -0.010252726802
    4          6.613370000000         0.031791179011
    5          2.042170000000        -0.043591201561
    6          1.114490000000        -0.044624567188
    7          0.598006000000        -0.018822908263
    8         42.524000000000         0.000816634602
    9         21.395700000000        -0.011783451882
   10         13.373700000000         0.056853031103
   11          6.613370000000        -0.176287237917
   12          2.042170000000         0.241720274610
   13          1.114490000000         0.247450454421
   14          0.598006000000         0.104376075710
   15         42.524000000000        -0.000041371199
   16         21.395700000000         0.000596956751
   17         13.373700000000        -0.002880208707
   18          6.613370000000         0.008930817366
   19          2.042170000000        -0.012245694310
   20          1.114490000000        -0.012535988661
   21          0.598006000000        -0.005287754693
   22         42.524000000000         0.000095231722
   23         21.395700000000        -0.002823986611
   24         13.373700000000         0.017685994505
   25          6.613370000000        -0.062785536856
   26          2.042170000000         0.107782521995
   27          1.114490000000         0.104025997122
   28          0.598006000000         0.054746515043
   29         42.524000000000        -0.000528075327
   30         21.395700000000         0.015659463253
   31         13.373700000000        -0.098071704736
   32          6.613370000000         0.348155973388
   33          2.042170000000        -0.597671545681
   34          1.114490000000        -0.576841006685
   35          0.598006000000        -0.303578295079
   36         42.524000000000         0.000026752613
   37         21.395700000000        -0.000793317815
   38         13.373700000000         0.004968371472
   39          6.613370000000        -0.017637790744
   40          2.042170000000         0.030278399517
   41          1.114490000000         0.029223111899
   42          0.598006000000         0.015379458784
   43          0.300337000000        -0.264887965525
   44          0.300337000000         1.468846681793
 P 44
    1         42.524000000000        -0.000003890733
    2         21.395700000000         0.000056140487
    3         13.373700000000        -0.000270867729
    4          6.613370000000         0.000839894071
    5          2.042170000000        -0.001151639947
    6          1.114490000000        -0.001178940529
    7          0.598006000000        -0.000497284138
    8         42.524000000000         0.000022111478
    9         21.395700000000        -0.000319052782
   10         13.373700000000         0.001539372159
   11          6.613370000000        -0.004773213683
   12          2.042170000000         0.006544901015
   13          1.114490000000         0.006700053327
   14          0.598006000000         0.002826122405
   15         42.524000000000         0.000450312919
   16         21.395700000000        -0.006497692613
   17         13.373700000000         0.031350195505
   18          6.613370000000        -0.097209229948
   19          2.042170000000         0.133290656971
   20          1.114490000000         0.136450422667
   21          0.598006000000         0.057555601101
   22         42.524000000000         0.000002096209
   23         21.395700000000        -0.000062160641
   24         13.373700000000         0.000389298148
   25          6.613370000000        -0.001382014068
   26          2.042170000000         0.002372472534
   27          1.114490000000         0.002289785175
   28          0.598006000000         0.001205061830
   29         42.524000000000        -0.000011912992
   30         21.395700000000         0.000353266005
   31         13.373700000000        -0.002212425723
   32          6.613370000000         0.007854143387
   33          2.042170000000        -0.013483031678
   34          1.114490000000        -0.013013109997
   35          0.598006000000        -0.006848503662
   36         42.524000000000        -0.000242614904
   37         21.395700000000         0.007194464478
   38         13.373700000000        -0.045057316752
   39          6.613370000000         0.159954127589
   40          2.042170000000        -0.274589660904
   41          1.114490000000        -0.265019436788
   42          0.598006000000        -0.139473698733
   43          0.300337000000        -0.007534956272
   44          0.300337000000         0.042822014869
 P 44
    1         42.524000000000        -0.000019209253
    2         21.395700000000         0.000277175754
    3         13.373700000000        -0.001337323045
    4          6.613370000000         0.004146709177
    5          2.042170000000        -0.005685855044
    6          1.114490000000        -0.005820642959
    7          0.598006000000        -0.002455181873
    8         42.524000000000         0.000106518421
    9         21.395700000000        -0.001536984458
   10         13.373700000000         0.007415672936
   11          6.613370000000        -0.022994174168
   12          2.042170000000         0.031528987351
   13          1.114490000000         0.032276408174
   14          0.598006000000         0.013614381235
   15         42.524000000000        -0.000005396287
   16         21.395700000000         0.000077864556
   17         13.373700000000        -0.000375682445
   18          6.613370000000         0.001164898676
   19          2.042170000000        -0.001597277438
   20          1.114490000000        -0.001635142226
   21          0.598006000000        -0.000689712731
   22         42.524000000000         0.000010031392
   23         21.395700000000        -0.000297469320
   24         13.373700000000         0.001862983607
   25          6.613370000000        -0.006613618809
   26          2.042170000000         0.011353450977
   27          1.114490000000         0.010957751190
   28          0.598006000000         0.005766815094
   29         42.524000000000        -0.000055625692
   30         21.395700000000         0.001649515572
   31         13.373700000000        -0.010330545912
   32          6.613370000000         0.036673587732
   33          2.042170000000        -0.062956724976
   34          1.114490000000        -0.060762505552
   35          0.598006000000        -0.031977923945
   36         42.524000000000         0.000002818031
   37         21.395700000000        -0.000083565450
   38         13.373700000000         0.000523351661
   39          6.613370000000        -0.001857905984
   40          2.042170000000         0.003189425505
   41          1.114490000000         0.003078265031
   42          0.598006000000         0.001620020836
   43          0.300337000000        -0.040829540877
   44          0.300337000000         0.226406418721
 P 44
    1         42.524000000000        -0.000046727969
    2         21.395700000000         0.000674251098
    3         13.373700000000        -0.003253140001
    4          6.613370000000         0.010087185401
    5          2.042170000000        -0.013831274765
    6          1.114490000000        -0.014159156617
    7          0.598006000000        -0.005972416606
    8         42.524000000000         0.000259114160
    9         21.395700000000        -0.003738831572
   10         13.373700000000         0.018039188328
   11          6.613370000000        -0.055935077214
   12          2.042170000000         0.076696659295
   13          1.114490000000         0.078514817285
   14          0.598006000000         0.033118017635
   15         42.524000000000        -0.000013126879
   16         21.395700000000         0.000189411453
   17         13.373700000000        -0.000913876117
   18          6.613370000000         0.002833704611
   19          2.042170000000        -0.003885498831
   20          1.114490000000        -0.003977607807
   21          0.598006000000        -0.001677778667
   22         42.524000000000         0.000025191601
   23         21.395700000000        -0.000747027807
   24         13.373700000000         0.004678467539
   25          6.613370000000        -0.016608627578
   26          2.042170000000         0.028511658207
   27          1.114490000000         0.027517946507
   28          0.598006000000         0.014482069041
   29         42.524000000000        -0.000139691510
   30         21.395700000000         0.004142390211
   31         13.373700000000        -0.025942860433
   32          6.613370000000         0.092097530585
   33          2.042170000000        -0.158101763766
   34          1.114490000000        -0.152591471400
   35          0.598006000000        -0.080305418988
   36         42.524000000000         0.000007076856
   37         21.395700000000        -0.000209855976
   38         13.373700000000         0.001314280893
   39          6.613370000000        -0.004665716221
   40          2.042170000000         0.008009530322
   41          1.114490000000         0.007730375601
   42          0.598006000000         0.004068320764
   43          0.300337000000        -0.077419257867
   44          0.300337000000         0.429302327111
 P 44
    1         42.524000000000        -0.000179658124
    2         21.395700000000         0.002592337937
    3         13.373700000000        -0.012507563219
    4          6.613370000000         0.038782871030
    5          2.042170000000        -0.053178019840
    6          1.114490000000        -0.054438648954
    7          0.598006000000        -0.022962546414
    8         42.524000000000         0.000996233402
    9         21.395700000000        -0.014374933829
   10         13.373700000000         0.069356464326
   11          6.613370000000        -0.215057302847
   12          2.042170000000         0.294880735073
   13          1.114490000000         0.301871127740
   14          0.598006000000         0.127331039894
   15         42.524000000000        -0.000050469783
   16         21.395700000000         0.000728242783
   17         13.373700000000        -0.003513640144
   18          6.613370000000         0.010894932144
   19          2.042170000000        -0.014938835170
   20          1.114490000000        -0.015292972661
   21          0.598006000000        -0.006450666967
   22         42.524000000000         0.000087803544
   23         21.395700000000        -0.002603712569
   24         13.373700000000         0.016306467605
   25          6.613370000000        -0.057888196366
   26          2.042170000000         0.099375367488
   27          1.114490000000         0.095911855660
   28          0.598006000000         0.050476227039
   29         42.524000000000        -0.000486884874
   30         21.395700000000         0.014438008006
   31         13.373700000000        -0.090422004587
   32          6.613370000000         0.320999426977
   33          2.042170000000        -0.551052511945
   34          1.114490000000        -0.531846777755
   35          0.598006000000        -0.279898856294
   36         42.524000000000         0.000024665880
   37         21.395700000000        -0.000731438158
   38         13.373700000000         0.004580833068
   39          6.613370000000        -0.016262023791
   40          2.042170000000         0.027916651265
   41          1.114490000000         0.026943677234
   42          0.598006000000         0.014179844191
   43          0.300337000000        -0.451025274082
   44          0.300337000000         2.501008212760
 P 44
    1         42.524000000000         0.007009410759
    2         21.395700000000        -0.101140772431
    3         13.373700000000         0.487985994114
    4          6.613370000000        -1.513124302706
    5          2.042170000000         2.074754964059
    6          1.114490000000         2.123938753165
    7          0.598006000000         0.895890018158
    8         42.524000000000        -0.038868319450
    9         21.395700000000         0.560841986216
   10         13.373700000000        -2.705961479294
   11          6.613370000000         8.390519658130
   12          2.042170000000       -11.504852761012
   13          1.114490000000       -11.777584848267
   14          0.598006000000        -4.967855446796
   15         42.524000000000         0.001969092404
   16         21.395700000000        -0.028412591817
   17         13.373700000000         0.137085633518
   18          6.613370000000        -0.425068764532
   19          2.042170000000         0.582842749735
   20          1.114490000000         0.596659521056
   21          0.598006000000         0.251674540217
   22         42.524000000000        -0.001797492921
   23         21.395700000000         0.053302574314
   24         13.373700000000        -0.333822063070
   25          6.613370000000         1.185073162744
   26          2.042170000000        -2.034388501306
   27          1.114490000000        -1.963484324394
   28          0.598006000000        -1.033337118386
   29         42.524000000000         0.009967389763
   30         21.395700000000        -0.295571419221
   31         13.373700000000         1.851097479234
   32          6.613370000000        -6.571422883463
   33          2.042170000000        11.281014178389
   34          1.114490000000        10.887839018115
   35          0.598006000000         5.730021908837
   36         42.524000000000        -0.000504953951
   37         21.395700000000         0.014973825593
   38         13.373700000000        -0.093777709914
   39          6.613370000000         0.332912229529
   40          2.042170000000        -0.571502952721
   41          1.114490000000        -0.551584462993
   42          0.598006000000        -0.290286350879
   43          0.300337000000         0.016266286909
   44          0.300337000000        -0.090199199003
 end
  // -----------------------------------------------
  // The basis set
  // -----------------------------------------------
  BAS[ATNO] = new BFNGauss[NSH];
  // Basis function   1 L = s
  InitBFNGauss(BAS[ATNO][  0]);
  BAS[ATNO][  0].l  = 0;
  BAS[ATNO][  0].ng = 25;
  BAS[ATNO][  0].a[  0] =      9675.549999999999;     BAS[ATNO][  0].d[  0] =         0.000007016474;
  BAS[ATNO][  0].a[  1] =      1471.480000000000;     BAS[ATNO][  0].d[  1] =         0.000049992626;
  BAS[ATNO][  0].a[  2] =       323.648000000000;     BAS[ATNO][  0].d[  2] =         0.000199093436;
  BAS[ATNO][  0].a[  3] =        33.807900000000;     BAS[ATNO][  0].d[  3] =         0.019002461175;
  BAS[ATNO][  0].a[  4] =        21.131600000000;     BAS[ATNO][  0].d[  4] =        -0.171814139372;
  BAS[ATNO][  0].a[  5] =        13.209100000000;     BAS[ATNO][  0].d[  5] =         0.590807621330;
  BAS[ATNO][  0].a[  6] =         8.256110000000;     BAS[ATNO][  0].d[  6] =        -0.501396243729;
  BAS[ATNO][  0].a[  7] =         5.100140000000;     BAS[ATNO][  0].d[  7] =        -0.537064668606;
  BAS[ATNO][  0].a[  8] =         1.819430000000;     BAS[ATNO][  0].d[  8] =         0.666168439039;
  BAS[ATNO][  0].a[  9] =         0.966985000000;     BAS[ATNO][  0].d[  9] =         0.535715744687;
  BAS[ATNO][  0].a[ 10] =      9675.549999999999;     BAS[ATNO][  0].d[ 10] =         0.000001484405;
  BAS[ATNO][  0].a[ 11] =      1471.480000000000;     BAS[ATNO][  0].d[ 11] =         0.000011380492;
  BAS[ATNO][  0].a[ 12] =       323.648000000000;     BAS[ATNO][  0].d[ 12] =         0.000049480436;
  BAS[ATNO][  0].a[ 13] =        33.807900000000;     BAS[ATNO][  0].d[ 13] =         0.003807024795;
  BAS[ATNO][  0].a[ 14] =        21.131600000000;     BAS[ATNO][  0].d[ 14] =        -0.036380985785;
  BAS[ATNO][  0].a[ 15] =        13.209100000000;     BAS[ATNO][  0].d[ 15] =         0.133139979422;
  BAS[ATNO][  0].a[ 16] =         8.256110000000;     BAS[ATNO][  0].d[ 16] =        -0.128383425068;
  BAS[ATNO][  0].a[ 17] =         5.100140000000;     BAS[ATNO][  0].d[ 17] =        -0.113362154158;
  BAS[ATNO][  0].a[ 18] =         1.819430000000;     BAS[ATNO][  0].d[ 18] =         0.200973699501;
  BAS[ATNO][  0].a[ 19] =         0.966985000000;     BAS[ATNO][  0].d[ 19] =         0.216414069728;
  BAS[ATNO][  0].a[ 20] =         0.466351000000;     BAS[ATNO][  0].d[ 20] =        -0.222947521203;
  BAS[ATNO][  0].a[ 21] =         0.229518000000;     BAS[ATNO][  0].d[ 21] =         0.161672575009;
  BAS[ATNO][  0].a[ 22] =         0.104071000000;     BAS[ATNO][  0].d[ 22] =        -0.082417244499;
  BAS[ATNO][  0].a[ 23] =         0.046125000000;     BAS[ATNO][  0].d[ 23] =         0.031817185673;
  BAS[ATNO][  0].a[ 24] =         0.015900000000;     BAS[ATNO][  0].d[ 24] =        -0.006605772824;

FINAL SINGLE POINT ENERGY      -157.261370612484

DIPOLE MOMENT
-------------
                                X             Y             Z
Electronic contribution:      0.00000       0.00000       0.00000
Nuclear contribution   :      0.00000       0.00000       0.00000
                        -----------------------------------------
Total Dipole Moment    :      0.00000       0.00000       0.00000
                        -----------------------------------------
Magnitude (a.u.)       :      0.00000
Magnitude (Debye)      :      0.00000

Rotational constants in cm-1:     0.000000     0.000000     0.000000
Rotational constants in MHz :     0.000000     0.000000     0.000000

                             ****ORCA TERMINATED NORMALLY****
TOTAL RUN TIME: 0 days 0 hours 0 minutes 1 seconds 351 msec
