                         Program Version 4.2.0 -  RELEASE  -
|  1> #
|  2> # 81_Tl CCSD(T)/aug-cc-pVQZ-PP
|  3> #
|  4> ! CCSD(T) aug-cc-pVQZ-PP tightscf slowconv
|  5>
|  6> *xyz 0 2
|  7>  Tl 0.0 0.0 0.0
|  8> *
|  9>
| 10> %maxcore 5000
| 11>
| 12> %pal
| 13> nprocs 24
| 14> end
| 15>
| 16>
| 17>                          ****END OF INPUT****

CARTESIAN COORDINATES (ANGSTROEM)
---------------------------------
  Tl     0.000000    0.000000    0.000000

 Total Charge           Charge          ....    0
 Multiplicity           Mult            ....    2
 Number of Electrons    NEL             ....   21
 Basis Dimension        Dim             ....   92

ORBITAL ENERGIES
----------------
                 SPIN UP ORBITALS
  NO   OCC          E(Eh)            E(eV)
   0   1.0000      -5.643359      -153.5636
   1   1.0000      -3.469177       -94.4011
   2   1.0000      -3.469177       -94.4011
   3   1.0000      -3.464469       -94.2730
   4   1.0000      -0.846598       -23.0371
   5   1.0000      -0.846598       -23.0371
   6   1.0000      -0.839262       -22.8375
   7   1.0000      -0.839262       -22.8375
   8   1.0000      -0.837057       -22.7775
   9   1.0000      -0.473414       -12.8822
  10   1.0000      -0.192908        -5.2493
  11   0.0000       0.007084         0.1928
  12   0.0000       0.007084         0.1928
  13   0.0000       0.021974         0.5980
  14   0.0000       0.028295         0.7699
  15   0.0000       0.029587         0.8051

                 SPIN DOWN ORBITALS
  NO   OCC          E(Eh)            E(eV)
   0   1.0000      -5.642886      -153.5507
   1   1.0000      -3.471541       -94.4654
   2   1.0000      -3.471541       -94.4654
   3   1.0000      -3.460623       -94.1683
   4   1.0000      -0.847299       -23.0562
   5   1.0000      -0.847299       -23.0562
   6   1.0000      -0.835770       -22.7425
   7   1.0000      -0.835770       -22.7425
   8   1.0000      -0.832316       -22.6485
   9   1.0000      -0.422812       -11.5053
  10   0.0000       0.011487         0.3126
  11   0.0000       0.011487         0.3126
  12   0.0000       0.018328         0.4987
  13   0.0000       0.031707         0.8628
  14   0.0000       0.034755         0.9457

E(0)                                       ...   -171.515534965
E(0)                                       ...   -171.515534965
E(CORR)                                    ...     -0.220531796
E(TOT)                                     ...   -171.736066761
E(CCSD(T))                                 ...   -171.745052202

MULLIKEN ATOMIC CHARGES AND SPIN DENSITIES
------------------------------------------
   0 Tl:   -0.000000    1.000000
Sum of atomic charges       :   -0.0000000

LOEWDIN ATOMIC CHARGES AND SPIN DENSITIES
-----------------------------------------
   0 Tl:   -0.000000    1.000000

FINAL SINGLE POINT ENERGY      -171.745052201716

DIPOLE MOMENT
-------------
                                X             Y             Z
Electronic contribution:     -0.00000      -0.00000      -0.00000
Nuclear contribution   :      0.00000       0.00000       0.00000
                        -----------------------------------------
Total Dipole Moment    :     -0.00000      -0.00000      -0.00000
                        -----------------------------------------
Magnitude (a.u.)       :      0.00000
Magnitude (Debye)      :      0.00000

Rotational constants in cm-1:     0.000000     0.000000     0.000000
Rotational constants in MHz :     0.000000     0.000000     0.000000

                             ****ORCA TERMINATED NORMALLY****
TOTAL RUN TIME: 0 days 0 hours 0 minutes 23 seconds 499 msec
