                         Program Version 4.2.0 -  RELEASE  -
|  1> #
|  2> # 82_Pb CCSD(T)/aug-cc-pVQZ-PP
|  3> #
|  4> ! CCSD(T) aug-cc-pVQZ-PP tightscf slowconv
|  5>
|  6> *xyz 0 3
|  7>  Pb 0.0 0.0 0.0
|  8> *
|  9>
| 10> %maxcore 5000
| 11>
| 12> %pal
| 13> nprocs 24
| 14> end
| 15>
| 16>
| 17>                          ****END OF INPUT****

CARTESIAN COORDINATES (ANGSTROEM)
---------------------------------
  Pb     0.000000    0.000000    0.000000

 Total Charge           Charge          ....    0
 Multiplicity           Mult            ....    3
 Number of Electrons    NEL             ....   22
 Basis Dimension        Dim             ....   92

ORBITAL ENERGIES
----------------
                 SPIN UP ORBITALS
  NO   OCC          E(Eh)            E(eV)
   0   1.0000      -6.173892      -168.0001
   1   1.0000      -3.859022      -105.0093
   2   1.0000      -3.853492      -104.8589
   3   1.0000      -3.853492      -104.8589
   4   1.0000      -1.081632       -29.4327
   5   1.0000      -1.078479       -29.3469
   6   1.0000      -1.078479       -29.3469
   7   1.0000      -1.069757       -29.1096
   8   1.0000      -1.069757       -29.1096
   9   1.0000      -0.623236       -16.9591
  10   1.0000      -0.255098        -6.9416
  11   1.0000      -0.255098        -6.9416
  12   0.0000      -0.016343        -0.4447
  13   0.0000       0.034619         0.9420
  14   0.0000       0.034852         0.9484
  15   0.0000       0.034852         0.9484
  16   0.0000       0.037839         1.0296

                 SPIN DOWN ORBITALS
  NO   OCC          E(Eh)            E(eV)
   0   1.0000      -6.169427      -167.8786
   1   1.0000      -3.862563      -105.1057
   2   1.0000      -3.847835      -104.7049
   3   1.0000      -3.847835      -104.7049
   4   1.0000      -1.078693       -29.3527
   5   1.0000      -1.073502       -29.2115
   6   1.0000      -1.073502       -29.2115
   7   1.0000      -1.059006       -28.8170
   8   1.0000      -1.059006       -28.8170
   9   1.0000      -0.503336       -13.6965
  10   0.0000       0.003809         0.1037
  11   0.0000       0.022694         0.6175
  12   0.0000       0.022694         0.6175
  13   0.0000       0.041660         1.1336
  14   0.0000       0.042866         1.1664

E(0)                                       ...   -191.836173165
E(0)                                       ...   -191.836173165
E(CORR)                                    ...     -0.220480966
E(TOT)                                     ...   -192.056654132
E(CCSD(T))                                 ...   -192.064605893

MULLIKEN ATOMIC CHARGES AND SPIN DENSITIES
------------------------------------------
   0 Pb:   -0.000000    2.000000
Sum of atomic charges       :   -0.0000000

LOEWDIN ATOMIC CHARGES AND SPIN DENSITIES
-----------------------------------------
   0 Pb:   -0.000000    2.000000

FINAL SINGLE POINT ENERGY      -192.064605892557

DIPOLE MOMENT
-------------
                                X             Y             Z
Electronic contribution:     -0.00000       0.00000       0.00000
Nuclear contribution   :      0.00000       0.00000       0.00000
                        -----------------------------------------
Total Dipole Moment    :     -0.00000       0.00000       0.00000
                        -----------------------------------------
Magnitude (a.u.)       :      0.00000
Magnitude (Debye)      :      0.00000

Rotational constants in cm-1:     0.000000     0.000000     0.000000
Rotational constants in MHz :     0.000000     0.000000     0.000000

                             ****ORCA TERMINATED NORMALLY****
TOTAL RUN TIME: 0 days 0 hours 0 minutes 22 seconds 847 msec
