                         Program Version 4.2.0 -  RELEASE  -
|  1> # input to generate an atomic fitting density for Pb
|  2> # this file is use internally by ORCA
|  3> #
|  4> # atomic ground state (S=3): 1s2 2s2 2p6 3s2 3p6 4s2 3d10 4p6 5s2 4d10 5p6 6s2 4f14 5d10 6p2
|  5> #
|  6> ! RHF AllowRHF def2-SVP def2/J  NoMulliken NoLoewdin NoMayer NoPrintMOs
|  7>
|  8> %output print[p_atomdensfit] 2 end
|  9>
| 10> %scf
| 11>   guess hcore
| 12>   maxiter 1000
| 13>   maxdisk 500000
| 14>   SCFMode Conventional
| 15>   lshift 1.000000
| 16>   hftyp rohf
| 17>   rohf_case sahf
| 18>   rohf_numop   2
| 19>   rohf_norb[1] 3
| 20>   rohf_nel[1]  2
| 21> end
| 22>
| 23> %basis
| 24>   NewECP 82
| 25>     N_core 60
| 26>     lmax h
| 27>     s 2
| 28>       1      12.2963030000    281.2854990000  2
| 29>       2       8.6326340000     62.5202170000  2
| 30>     p 4
| 31>       1      10.2417900000     72.2768970000  2
| 32>       2       8.9241760000    144.5910830000  2
| 33>       3       6.5813420000      4.7586930000  2
| 34>       4       6.2554030000      9.9406210000  2
| 35>     d 4
| 36>       1       7.7543360000     35.8485070000  2
| 37>       2       7.7202810000     53.7243420000  2
| 38>       3       4.9702640000     10.1152560000  2
| 39>       4       4.5637890000     14.8337310000  2
| 40>     f 2
| 41>       1       3.8875120000     12.2098920000  2
| 42>       2       3.8119630000     16.1902910000  2
| 43>     g 2
| 44>       1       5.6915770000     -9.0966650000  2
| 45>       2       5.7155670000    -11.5319960000  2
| 46>     h 1
| 47>       1       1.0000000000      0.0000000000  2
| 48>   end
| 49>   NewGTO 82
| 50>     s 10
| 51>      1    9368.3300000000      0.0000152687
| 52>      2    1366.9300000000      0.0001123337
| 53>      3     299.6820000000      0.0004133442
| 54>      4      34.8597000000      0.0253830431
| 55>      5      21.7889000000     -0.2218709617
| 56>      6      13.6200000000      0.7625753681
| 57>      7       8.5129500000     -0.6618317124
| 58>      8       5.3033200000     -0.6667951149
| 59>      9       1.9281600000      0.8345703335
| 60>     10       1.0360100000      0.6759737559
| 61>     s 10
| 62>      1    9368.3300000000      0.0000086033
| 63>      2    1366.9300000000      0.0000630912
| 64>      3     299.6820000000      0.0002581004
| 65>      4      34.8597000000      0.0125350764
| 66>      5      21.7889000000     -0.1161337119
| 67>      6      13.6200000000      0.4272450743
| 68>      7       8.5129500000     -0.4240632698
| 69>      8       5.3033200000     -0.3461542282
| 70>      9       1.9281600000      0.6293161843
| 71>     10       1.0360100000      0.6949740600
| 72>     s 1
| 73>      1       0.5012700000      1.0000000000
| 74>     s 1
| 75>      1       0.2625190000      1.0000000000
| 76>     s 1
| 77>      1       0.1221610000      1.0000000000
| 78>     s 1
| 79>      1       0.0550880000      1.0000000000
| 80>     s 1
| 81>      1       0.0216000000      1.0000000000
| 82>     p 7
| 83>      1      59.0901000000      0.0007547721
| 84>      2      20.9197000000     -0.0222236107
| 85>      3      13.0777000000      0.1339414763
| 86>      4       6.8991000000     -0.3924435394
| 87>      5       2.1962700000      0.4592545737
| 88>      6       1.3048600000      0.4593304726
| 89>      7       0.7795720000      0.2750775330
| 90>     p 7
| 91>      1      59.0901000000     -0.0002366953
| 92>      2      20.9197000000      0.0115874296
| 93>      3      13.0777000000     -0.0872501269
| 94>      4       6.8991000000      0.2877602641
| 95>      5       2.1962700000     -0.4375378313
| 96>      6       1.3048600000     -0.3574470710
| 97>      7       0.7795720000     -0.3711488009
| 98>     p 1
| 99>      1       0.4244770000      1.0000000000
|100>     p 1
|101>      1       0.1807330000      1.0000000000
|102>     p 1
|103>      1       0.0797370000      1.0000000000
|104>     p 1
|105>      1       0.0346490000      1.0000000000
|106>     p 1
|107>      1       0.0137000000      1.0000000000
|108>   end
|109>   NewAuxGTO 82
|110>     S 1
|111>      1 1310.72 1.0
|112>     S 1
|113>      1  655.36 1.0
|114>     S 1
|115>      1  327.68 1.0
|116>     S 1
|117>      1  163.84 1.0
|118>     S 1
|119>      1   81.82 1.0
|120>     S 1
|121>      1   40.96 1.0
|122>     S 1
|123>      1   20.48 1.0
|124>     S 1
|125>      1   10.24 1.0
|126>     S 1
|127>      1    5.12 1.0
|128>     S 1
|129>      1    2.56 1.0
|130>     S 1
|131>      1    1.28 1.0
|132>     S 1
|133>      1    0.64 1.0
|134>     S 1
|135>      1    0.32 1.0
|136>     S 1
|137>      1    0.16 1.0
|138>     S 1
|139>      1    0.08 1.0
|140>     S 1
|141>      1    0.04 1.0
|142>     S 1
|143>      1    0.02 1.0
|144>     S 1
|145>      1    0.01 1.0
|146>   end
|147> end
|148>
|149> * xyz 0 3
|150> 82  0.0 0.0 0.0
|151> *
|152>
|153>
|154>                          ****END OF INPUT****

CARTESIAN COORDINATES (ANGSTROEM)
---------------------------------
  Pb     0.000000    0.000000    0.000000

 Total Charge           Charge          ....    0
 Multiplicity           Mult            ....    3
 Number of Electrons    NEL             ....   22
 Basis Dimension        Dim             ....   28

ORBITAL ENERGIES
----------------

  NO   OCC          E(Eh)            E(eV)
   0   2.0000      -9.313867      -253.4432
   1   2.0000      -6.685027      -181.9088
   2   2.0000      -6.685027      -181.9088
   3   2.0000      -6.676812      -181.6853
   4   2.0000      -2.334396       -63.5221
   5   2.0000      -1.474514       -40.1236
   6   2.0000      -1.474514       -40.1236
   7   2.0000      -1.459435       -39.7132
   8   2.0000      -0.438603       -11.9350
   9   2.0000      -0.223739        -6.0883
  10   0.6667      -0.253411        -6.8957
  11   0.6667      -0.253411        -6.8957
  12   0.6667      -0.080739        -2.1970
  13   0.0000      -0.017495        -0.4761
  14   0.0000      -0.017495        -0.4761
  15   0.0000      -0.010477        -0.2851
  16   0.0000       0.111961         3.0466
  17   0.0000       0.111961         3.0466

CleanUpVectors: The p-vectors have cracked symmetry
CleanUpVectors: The p-vectors have cracked symmetry
CleanUpVectors: The p-vectors have cracked symmetry
CleanUpVectors: The p-vectors have cracked symmetry
CleanUpVectors: The p-vectors have cracked symmetry
CleanUpVectors: The p-vectors have cracked symmetry
CleanUpVectors: The p-vectors have cracked symmetry
CleanUpVectors: The p-vectors have cracked symmetry
CleanUpVectors: The p-vectors have cracked symmetry
CleanUpVectors: The p-vectors have cracked symmetry
CleanUpVectors: The p-vectors have cracked symmetry
CleanUpVectors: The p-vectors have cracked symmetry
CleanUpVectors: The p-vectors have cracked symmetry
CleanUpVectors: The p-vectors have cracked symmetry
CleanUpVectors: The p-vectors have cracked symmetry
CleanUpVectors: The p-vectors have cracked symmetry
CleanUpVectors: The p-vectors have cracked symmetry
CleanUpVectors: The p-vectors have cracked symmetry
CleanUpVectors: The p-vectors have cracked symmetry
CleanUpVectors: The p-vectors have cracked symmetry
--------------------------
ATOM BASIS FOR ELEMENT Pb
--------------------------
 NewGTO Pb
 S 25
    1       9368.330000000000         0.000012260661
    2       1366.930000000000         0.000090203188
    3        299.682000000000         0.000331912549
    4         34.859700000000         0.020382409014
    5         21.788900000000        -0.178160856123
    6         13.620000000000         0.612342775268
    7          8.512950000000        -0.531446312698
    8          5.303320000000        -0.535431890765
    9          1.928160000000         0.670154237272
   10          1.036010000000         0.542802276354
   11       9368.330000000000         0.000002806703
   12       1366.930000000000         0.000020582598
   13        299.682000000000         0.000084201548
   14         34.859700000000         0.004089388610
   15         21.788900000000        -0.037886955252
   16         13.620000000000         0.139382568137
   17          8.512950000000        -0.138344550125
   18          5.303320000000        -0.112927844462
   19          1.928160000000         0.205305365033
   20          1.036010000000         0.226725303808
   21          0.501270000000        -0.260320224846
   22          0.262519000000         0.200841080744
   23          0.122161000000        -0.099795933968
   24          0.055088000000         0.039371012021
   25          0.021600000000        -0.008913891591
 P 44
    1         59.090100000000        -0.000538067004
    2         20.919700000000         0.015842916865
    3         13.077700000000        -0.095485099269
    4          6.899100000000         0.279767786292
    5          2.196270000000        -0.327396485173
    6          1.304860000000        -0.327450592491
    7          0.779572000000        -0.196099119338
    8         59.090100000000         0.000292955726
    9         20.919700000000        -0.008625827587
   10         13.077700000000         0.051987775387
   11          6.899100000000        -0.152322246566
   12          2.196270000000         0.178254147128
   13          1.304860000000         0.178283606374
   14          0.779572000000         0.106768040749
   15         59.090100000000         0.000000009676
   16         20.919700000000        -0.000000284894
   17         13.077700000000         0.000001717053
   18          6.899100000000        -0.000005030902
   19          2.196270000000         0.000005887381
   20          1.304860000000         0.000005888354
   21          0.779572000000         0.000003526337
   22         59.090100000000        -0.000060105978
   23         20.919700000000         0.002942491004
   24         13.077700000000        -0.022156140093
   25          6.899100000000         0.073073323227
   26          2.196270000000        -0.111107568901
   27          1.304860000000        -0.090769465469
   28          0.779572000000        -0.094248858084
   29         59.090100000000         0.000032725275
   30         20.919700000000        -0.001602067365
   31         13.077700000000         0.012063122345
   32          6.899100000000        -0.039785469605
   33          2.196270000000         0.060493578370
   34          1.304860000000         0.049420303471
   35          0.779572000000         0.051314692052
   36         59.090100000000         0.000000001081
   37         20.919700000000        -0.000000052913
   38         13.077700000000         0.000000398421
   39          6.899100000000        -0.000001314035
   40          2.196270000000         0.000001997983
   41          1.304860000000         0.000001632255
   42          0.779572000000         0.000001694823
   43          0.424477000000         0.170369238335
   44          0.424477000000        -0.092759160991
 S 25
    1       9368.330000000000        -0.000009620144
    2       1366.930000000000        -0.000070776583
    3        299.682000000000        -0.000260430218
    4         34.859700000000        -0.015992752378
    5         21.788900000000         0.139791251051
    6         13.620000000000        -0.480465599962
    7          8.512950000000         0.416991400554
    8          5.303320000000         0.420118624773
    9          1.928160000000        -0.525826498952
   10          1.036010000000        -0.425901687588
   11       9368.330000000000         0.000019387749
   12       1366.930000000000         0.000142177574
   13        299.682000000000         0.000581635614
   14         34.859700000000         0.028248103673
   15         21.788900000000        -0.261710182607
   16         13.620000000000         0.962807307056
   17          8.512950000000        -0.955637032180
   18          5.303320000000        -0.780067086380
   19          1.928160000000         1.418179534745
   20          1.036010000000         1.566141176183
   21          0.501270000000        -1.532424612103
   22          0.262519000000        -0.326922410091
   23          0.122161000000        -0.131540119326
   24          0.055088000000         0.044820226977
   25          0.021600000000        -0.009923159892
 P 44
    1         59.090100000000         0.000053349058
    2         20.919700000000        -0.001570816795
    3         13.077700000000         0.009467296890
    4          6.899100000000        -0.027738827454
    5          2.196270000000         0.032461187657
    6          1.304860000000         0.032466552369
    7          0.779572000000         0.019443123554
    8         59.090100000000         0.000097986272
    9         20.919700000000        -0.002885120898
   10         13.077700000000         0.017388594395
   11          6.899100000000        -0.050947934262
   12          2.196270000000         0.059621498333
   13          1.304860000000         0.059631351705
   14          0.779572000000         0.035711205973
   15         59.090100000000         0.000438442521
   16         20.919700000000        -0.012909560244
   17         13.077700000000         0.077805788661
   18          6.899100000000        -0.227968064348
   19          2.196270000000         0.266778187683
   20          1.304860000000         0.266822276893
   21          0.779572000000         0.159790865304
   22         59.090100000000        -0.000044262336
   23         20.919700000000         0.002166864773
   24         13.077700000000        -0.016315889974
   25          6.899100000000         0.053811552771
   26          2.196270000000        -0.081820157387
   27          1.304860000000        -0.066843078505
   28          0.779572000000        -0.069405320252
   29         59.090100000000        -0.000081296681
   30         20.919700000000         0.003979882863
   31         13.077700000000        -0.029967412689
   32          6.899100000000         0.098835736933
   33          2.196270000000        -0.150279171198
   34          1.304860000000        -0.122770754286
   35          0.779572000000        -0.127476826461
   36         59.090100000000        -0.000363764445
   37         20.919700000000         0.017808105583
   38         13.077700000000        -0.134090089483
   39          6.899100000000         0.442243477847
   40          2.196270000000        -0.672428671864
   41          1.304860000000        -0.549341432945
   42          0.779572000000        -0.570398894449
   43          0.424477000000         0.164661470972
   44          0.424477000000         0.302433901086
 S 25
    1       9368.330000000000        -0.000004719486
    2       1366.930000000000        -0.000034721835
    3        299.682000000000        -0.000127762810
    4         34.859700000000        -0.007845783026
    5         21.788900000000         0.068579303846
    6         13.620000000000        -0.235708573460
    7          8.512950000000         0.204569168276
    8          5.303320000000         0.206103333386
    9          1.928160000000        -0.257961889395
   10          1.036010000000        -0.208940409518
   11       9368.330000000000         0.000006850409
   12       1366.930000000000         0.000050236599
   13        299.682000000000         0.000205513390
   14         34.859700000000         0.009981100565
   15         21.788900000000        -0.092471894105
   16         13.620000000000         0.340195457644
   17          8.512950000000        -0.337661934140
   18          5.303320000000        -0.275626573977
   19          1.928160000000         0.501095320225
   20          1.036010000000         0.553375644599
   21          0.501270000000        -0.786974006727
   22          0.262519000000        -0.026444294857
   23          0.122161000000        -0.071027432193
   24          0.055088000000         2.018895346749
   25          0.021600000000        -2.087533902862
 S 25
    1       9368.330000000000        -0.000005309399
    2       1366.930000000000        -0.000039061901
    3        299.682000000000        -0.000143732560
    4         34.859700000000        -0.008826468990
    5         21.788900000000         0.077151394159
    6         13.620000000000        -0.265171036127
    7          8.512950000000         0.230139351807
    8          5.303320000000         0.231865280337
    9          1.928160000000        -0.290205911851
   10          1.036010000000        -0.235056977638
   11       9368.330000000000         0.000008771581
   12       1366.930000000000         0.000064325267
   13        299.682000000000         0.000263148858
   14         34.859700000000         0.012780263204
   15         21.788900000000        -0.118405293881
   16         13.620000000000         0.435602012145
   17          8.512950000000        -0.432357971369
   18          5.303320000000        -0.352925024504
   19          1.928160000000         0.641625644499
   20          1.036010000000         0.708567791965
   21          0.501270000000         0.030016192708
   22          0.262519000000        -4.256906970659
   23          0.122161000000         8.211495017069
   24          0.055088000000        -6.648322642177
   25          0.021600000000         2.172469200271
 S 25
    1       9368.330000000000        -0.000043141330
    2       1366.930000000000        -0.000317396059
    3        299.682000000000        -0.001167893698
    4         34.859700000000        -0.071719153355
    5         21.788900000000         0.626890852469
    6         13.620000000000        -2.154637627732
    7          8.512950000000         1.869988948524
    8          5.303320000000         1.884012918134
    9          1.928160000000        -2.358057601609
   10          1.036010000000        -1.909946938688
   11       9368.330000000000         0.000053040432
   12       1366.930000000000         0.000388965221
   13        299.682000000000         0.001591221585
   14         34.859700000000         0.077280330184
   15         21.788900000000        -0.715979010797
   16         13.620000000000         2.634019878127
   17          8.512950000000        -2.614403651270
   18          5.303320000000        -2.134084563691
   19          1.928160000000         3.879813808946
   20          1.036010000000         4.284602910454
   21          0.501270000000       -11.552173873014
   22          0.262519000000        15.140981296217
   23          0.122161000000       -10.304458709986
   24          0.055088000000         4.459388045476
   25          0.021600000000        -0.996593607431
 P 44
    1         59.090100000000         0.000213461321
    2         20.919700000000        -0.006285183686
    3         13.077700000000         0.037880738329
    4          6.899100000000        -0.110989153141
    5          2.196270000000         0.129884355566
    6          1.304860000000         0.129905820959
    7          0.779572000000         0.077796216196
    8         59.090100000000         0.000392064678
    9         20.919700000000        -0.011544004850
   10         13.077700000000         0.069575600151
   11          6.899100000000        -0.203853918394
   12          2.196270000000         0.238558760662
   13          1.304860000000         0.238598186176
   14          0.779572000000         0.142888408992
   15         59.090100000000        -0.000113595087
   16         20.919700000000         0.003344708954
   17         13.077700000000        -0.020158526942
   18          6.899100000000         0.059063733511
   19          2.196270000000        -0.069118961153
   20          1.304860000000        -0.069130384128
   21          0.779572000000        -0.041399856216
   22         59.090100000000        -0.000176102283
   23         20.919700000000         0.008621095591
   24         13.077700000000        -0.064914455601
   25          6.899100000000         0.214094827725
   26          2.196270000000        -0.325529957753
   27          1.304860000000        -0.265942100540
   28          0.779572000000        -0.276136244306
   29         59.090100000000        -0.000323447287
   30         20.919700000000         0.015834377209
   31         13.077700000000        -0.119228462964
   32          6.899100000000         0.393228241719
   33          2.196270000000        -0.597901286426
   34          1.304860000000        -0.488456193480
   35          0.779572000000        -0.507179790270
   36         59.090100000000         0.000093714188
   37         20.919700000000        -0.004587782483
   38         13.077700000000         0.034544728004
   39          6.899100000000        -0.113932213130
   40          2.196270000000         0.173233276680
   41          1.304860000000         0.141523139073
   42          0.779572000000         0.146948031270
   43          0.424477000000         0.658431515066
   44          0.424477000000         1.209341999117
 P 44
    1         59.090100000000         0.000251795170
    2         20.919700000000        -0.007413890667
    3         13.077700000000         0.044683443862
    4          6.899100000000        -0.130920827113
    5          2.196270000000         0.153209271163
    6          1.304860000000         0.153234591357
    7          0.779572000000         0.091767030222
    8         59.090100000000        -0.000137091068
    9         20.919700000000         0.004036527737
   10         13.077700000000        -0.024328111735
   11          6.899100000000         0.071280461735
   12          2.196270000000        -0.083415510209
   13          1.304860000000        -0.083429295909
   14          0.779572000000        -0.049962992371
   15         20.919700000000         0.000000009300
   16         13.077700000000        -0.000000056051
   17          6.899100000000         0.000000164227
   18          2.196270000000        -0.000000192186
   19          1.304860000000        -0.000000192217
   20          0.779572000000        -0.000000115113
   21         59.090100000000        -0.000172167081
   22         20.919700000000         0.008428447593
   23         13.077700000000        -0.063463869682
   24          6.899100000000         0.209310639988
   25          2.196270000000        -0.318255627735
   26          1.304860000000        -0.259999327659
   27          0.779572000000        -0.269965671911
   28         59.090100000000         0.000093737179
   29         20.919700000000        -0.004588908040
   30         13.077700000000         0.034553203140
   31          6.899100000000        -0.113960165036
   32          2.196270000000         0.173275777392
   33          1.304860000000         0.141557860083
   34          0.779572000000         0.146984083212
   35         20.919700000000        -0.000000010573
   36         13.077700000000         0.000000079609
   37          6.899100000000        -0.000000262559
   38          2.196270000000         0.000000399220
   39          1.304860000000         0.000000326143
   40          0.779572000000         0.000000338645
   41          0.424477000000         0.777716198656
   42          0.424477000000        -0.423431252014
   43          0.424477000000        -0.000000975568
   44          0.180733000000        -0.071525028436
 P 44
    1         59.090100000000         0.000043551270
    2         20.919700000000        -0.001282329409
    3         13.077700000000         0.007728586344
    4          6.899100000000        -0.022644470281
    5          2.196270000000         0.026499548347
    6          1.304860000000         0.026503927806
    7          0.779572000000         0.015872308742
    8         59.090100000000         0.000079990672
    9         20.919700000000        -0.002355256053
   10         13.077700000000         0.014195104344
   11          6.899100000000        -0.041591127297
   12          2.196270000000         0.048671754071
   13          1.304860000000         0.048679797829
   14          0.779572000000         0.029152689605
   15         59.090100000000        -0.000023176144
   16         20.919700000000         0.000682401481
   17         13.077700000000        -0.004112826806
   18          6.899100000000         0.012050429437
   19          2.196270000000        -0.014101938950
   20          1.304860000000        -0.014104269513
   21          0.779572000000        -0.008446571464
   22         59.090100000000        -0.000028583772
   23         20.919700000000         0.001399319885
   24         13.077700000000        -0.010536490125
   25          6.899100000000         0.034750473024
   26          2.196270000000        -0.052837894944
   27          1.304860000000        -0.043165983452
   28          0.779572000000        -0.044820630235
   29         59.090100000000        -0.000052499849
   30         20.919700000000         0.002570132609
   31         13.077700000000        -0.019352384782
   32          6.899100000000         0.063826237894
   33          2.196270000000        -0.097047428683
   34          1.304860000000        -0.079283016574
   35          0.779572000000        -0.082322108420
   36         59.090100000000         0.000015211074
   37         20.919700000000        -0.000744658865
   38         13.077700000000         0.005607074451
   39          6.899100000000        -0.018492732127
   40          2.196270000000         0.028118093146
   41          1.304860000000         0.022971110881
   42          0.779572000000         0.023851643923
   43          0.424477000000         0.144475643989
   44          0.424477000000         0.265358598622
 P 44
    1         59.090100000000         0.000085656381
    2         20.919700000000        -0.002522077929
    3         13.077700000000         0.015200538102
    4          6.899100000000        -0.044537010776
    5          2.196270000000         0.052119155610
    6          1.304860000000         0.052127769104
    7          0.779572000000         0.031217563348
    8         59.090100000000         0.000157325183
    9         20.919700000000        -0.004632303733
   10         13.077700000000         0.027918847617
   11          6.899100000000        -0.081801184200
   12          2.196270000000         0.095727319236
   13          1.304860000000         0.095743139651
   14          0.779572000000         0.057337338209
   15         59.090100000000        -0.000045582703
   16         20.919700000000         0.001342143214
   17         13.077700000000        -0.008089083539
   18          6.899100000000         0.023700713641
   19          2.196270000000        -0.027735610469
   20          1.304860000000        -0.027740194206
   21          0.779572000000        -0.016612667006
   22         59.090100000000        -0.000059253617
   23         20.919700000000         0.002900763623
   24         13.077700000000        -0.021841944498
   25          6.899100000000         0.072037072502
   26          2.196270000000        -0.109531955616
   27          1.304860000000        -0.089482266253
   28          0.779572000000        -0.092912317699
   29         59.090100000000        -0.000108831194
   30         20.919700000000         0.005327836226
   31         13.077700000000        -0.040117127172
   32          6.899100000000         0.132310582462
   33          2.196270000000        -0.201177481852
   34          1.304860000000        -0.164352191959
   35          0.779572000000        -0.170652171803
   36         59.090100000000         0.000031532269
   37         20.919700000000        -0.001543663725
   38         13.077700000000         0.011623359155
   39          6.899100000000        -0.038335083499
   40          2.196270000000         0.058288274614
   41          1.304860000000         0.047618677847
   42          0.779572000000         0.049444006168
   43          0.424477000000         0.229096583438
   44          0.424477000000         0.420781985472
 P 44
    1         59.090100000000         0.000390464759
    2         20.919700000000        -0.011496896622
    3         13.077700000000         0.069291679338
    4          6.899100000000        -0.203022040980
    5          2.196270000000         0.237585261372
    6          1.304860000000         0.237624526000
    7          0.779572000000         0.142305316742
    8         59.090100000000         0.000717167119
    9         20.919700000000        -0.021116364611
   10         13.077700000000         0.127268115354
   11          6.899100000000        -0.372890840252
   12          2.196270000000         0.436373150997
   13          1.304860000000         0.436445268389
   14          0.779572000000         0.261372355809
   15         59.090100000000        -0.000207788832
   16         20.919700000000         0.006118162172
   17         13.077700000000        -0.036874101362
   18          6.899100000000         0.108039744300
   19          2.196270000000        -0.126432828495
   20          1.304860000000        -0.126453723470
   21          0.779572000000        -0.075728871402
   22         59.090100000000        -0.000234427193
   23         20.919700000000         0.011476394334
   24         13.077700000000        -0.086414062181
   25          6.899100000000         0.285002833105
   26          2.196270000000        -0.433345173286
   27          1.304860000000        -0.354021873864
   28          0.779572000000        -0.367592308448
   29         59.090100000000        -0.000430572724
   30         20.919700000000         0.021078708033
   31         13.077700000000        -0.158716817646
   32          6.899100000000         0.523465065160
   33          2.196270000000        -0.795925629578
   34          1.304860000000        -0.650232424888
   35          0.779572000000        -0.675157259306
   36         59.090100000000         0.000124752238
   37         20.919700000000        -0.006107251722
   38         13.077700000000         0.045985909396
   39          6.899100000000        -0.151666454857
   40          2.196270000000         0.230607974824
   41          1.304860000000         0.188395469496
   42          0.779572000000         0.195617080881
   43          0.424477000000         1.510506141667
   44          0.424477000000         2.774348546841
 P 44
    1         59.090100000000        -0.007565225862
    2         20.919700000000         0.222751522491
    3         13.077700000000        -1.342521166934
    4          6.899100000000         3.933537041888
    5          2.196270000000        -4.603196882964
    6          1.304860000000        -4.603957632230
    7          0.779572000000        -2.757154996362
    8         59.090100000000        -0.013895059767
    9         20.919700000000         0.409127998916
   10         13.077700000000        -2.465810300142
   11          6.899100000000         7.224732386175
   12          2.196270000000        -8.454697450701
   13          1.304860000000        -8.456094719826
   14          0.779572000000        -5.064070017340
   15         59.090100000000         0.004025893113
   16         20.919700000000        -0.118538935476
   17         13.077700000000         0.714432961908
   18          6.899100000000        -2.093261982624
   19          2.196270000000         2.449626616207
   20          1.304860000000         2.450031454778
   21          0.779572000000         1.467241231652
   22         59.090100000000         0.002448130814
   23         20.919700000000        -0.119848359720
   24         13.077700000000         0.902424865156
   25          6.899100000000        -2.976293866317
   26          2.196270000000         4.525437755114
   27          1.304860000000         3.697061956339
   28          0.779572000000         3.838778446581
   29         59.090100000000         0.004496484916
   30         20.919700000000        -0.220125631633
   31         13.077700000000         1.657484874289
   32          6.899100000000        -5.466562652841
   33          2.196270000000         8.311877163688
   34          1.304860000000         6.790398301890
   35          0.779572000000         7.050689156101
   36         59.090100000000        -0.001302791637
   37         20.919700000000         0.063778226164
   38         13.077700000000        -0.480232330925
   39          6.899100000000         1.583857666302
   40          2.196270000000        -2.408246498414
   41          1.304860000000        -1.967419947543
   42          0.779572000000        -2.042835467512
   43          0.424477000000        -0.479161903588
   44          0.424477000000        -0.880077265371
 end
  // -----------------------------------------------
  // The basis set
  // -----------------------------------------------
  BAS[ATNO] = new BFNGauss[NSH];
  // Basis function   1 L = s
  InitBFNGauss(BAS[ATNO][  0]);
  BAS[ATNO][  0].l  = 0;
  BAS[ATNO][  0].ng = 25;
  BAS[ATNO][  0].a[  0] =      9368.330000000000;     BAS[ATNO][  0].d[  0] =         0.000012260661;
  BAS[ATNO][  0].a[  1] =      1366.930000000000;     BAS[ATNO][  0].d[  1] =         0.000090203188;
  BAS[ATNO][  0].a[  2] =       299.682000000000;     BAS[ATNO][  0].d[  2] =         0.000331912549;
  BAS[ATNO][  0].a[  3] =        34.859700000000;     BAS[ATNO][  0].d[  3] =         0.020382409014;
  BAS[ATNO][  0].a[  4] =        21.788900000000;     BAS[ATNO][  0].d[  4] =        -0.178160856123;
  BAS[ATNO][  0].a[  5] =        13.620000000000;     BAS[ATNO][  0].d[  5] =         0.612342775268;
  BAS[ATNO][  0].a[  6] =         8.512950000000;     BAS[ATNO][  0].d[  6] =        -0.531446312698;
  BAS[ATNO][  0].a[  7] =         5.303320000000;     BAS[ATNO][  0].d[  7] =        -0.535431890765;
  BAS[ATNO][  0].a[  8] =         1.928160000000;     BAS[ATNO][  0].d[  8] =         0.670154237272;
  BAS[ATNO][  0].a[  9] =         1.036010000000;     BAS[ATNO][  0].d[  9] =         0.542802276354;
  BAS[ATNO][  0].a[ 10] =      9368.330000000000;     BAS[ATNO][  0].d[ 10] =         0.000002806703;
  BAS[ATNO][  0].a[ 11] =      1366.930000000000;     BAS[ATNO][  0].d[ 11] =         0.000020582598;
  BAS[ATNO][  0].a[ 12] =       299.682000000000;     BAS[ATNO][  0].d[ 12] =         0.000084201548;
  BAS[ATNO][  0].a[ 13] =        34.859700000000;     BAS[ATNO][  0].d[ 13] =         0.004089388610;
  BAS[ATNO][  0].a[ 14] =        21.788900000000;     BAS[ATNO][  0].d[ 14] =        -0.037886955252;
  BAS[ATNO][  0].a[ 15] =        13.620000000000;     BAS[ATNO][  0].d[ 15] =         0.139382568137;
  BAS[ATNO][  0].a[ 16] =         8.512950000000;     BAS[ATNO][  0].d[ 16] =        -0.138344550125;
  BAS[ATNO][  0].a[ 17] =         5.303320000000;     BAS[ATNO][  0].d[ 17] =        -0.112927844462;
  BAS[ATNO][  0].a[ 18] =         1.928160000000;     BAS[ATNO][  0].d[ 18] =         0.205305365033;
  BAS[ATNO][  0].a[ 19] =         1.036010000000;     BAS[ATNO][  0].d[ 19] =         0.226725303808;
  BAS[ATNO][  0].a[ 20] =         0.501270000000;     BAS[ATNO][  0].d[ 20] =        -0.260320224846;
  BAS[ATNO][  0].a[ 21] =         0.262519000000;     BAS[ATNO][  0].d[ 21] =         0.200841080744;
  BAS[ATNO][  0].a[ 22] =         0.122161000000;     BAS[ATNO][  0].d[ 22] =        -0.099795933968;
  BAS[ATNO][  0].a[ 23] =         0.055088000000;     BAS[ATNO][  0].d[ 23] =         0.039371012021;
  BAS[ATNO][  0].a[ 24] =         0.021600000000;     BAS[ATNO][  0].d[ 24] =        -0.008913891591;

FINAL SINGLE POINT ENERGY      -174.416011114469

DIPOLE MOMENT
-------------
                                X             Y             Z
Electronic contribution:     -0.00000      -0.00000      -0.00000
Nuclear contribution   :      0.00000       0.00000       0.00000
                        -----------------------------------------
Total Dipole Moment    :     -0.00000      -0.00000      -0.00000
                        -----------------------------------------
Magnitude (a.u.)       :      0.00000
Magnitude (Debye)      :      0.00000

Rotational constants in cm-1:     0.000000     0.000000     0.000000
Rotational constants in MHz :     0.000000     0.000000     0.000000

                             ****ORCA TERMINATED NORMALLY****
TOTAL RUN TIME: 0 days 0 hours 0 minutes 1 seconds 51 msec
