                         Program Version 4.2.0 -  RELEASE  -
|  1> #
|  2> # 83_Bi CCSD(T)/aug-cc-pVQZ-PP
|  3> #
|  4> ! CCSD(T) aug-cc-pVQZ-PP tightscf slowconv
|  5>
|  6> *xyz 0 4
|  7>  Bi 0.0 0.0 0.0
|  8> *
|  9>
| 10> %maxcore 5000
| 11>
| 12> %pal
| 13> nprocs 24
| 14> end
| 15>
| 16>
| 17>                          ****END OF INPUT****

CARTESIAN COORDINATES (ANGSTROEM)
---------------------------------
  Bi     0.000000    0.000000    0.000000

 Total Charge           Charge          ....    0
 Multiplicity           Mult            ....    4
 Number of Electrons    NEL             ....   23
 Basis Dimension        Dim             ....   92

ORBITAL ENERGIES
----------------
                 SPIN UP ORBITALS
  NO   OCC          E(Eh)            E(eV)
   0   1.0000      -6.685424      -181.9196
   1   1.0000      -4.259903      -115.9179
   2   1.0000      -4.259903      -115.9179
   3   1.0000      -4.259903      -115.9179
   4   1.0000      -1.314813       -35.7779
   5   1.0000      -1.314813       -35.7779
   6   1.0000      -1.314813       -35.7779
   7   1.0000      -1.314813       -35.7779
   8   1.0000      -1.314813       -35.7779
   9   1.0000      -0.779760       -21.2184
  10   1.0000      -0.319054        -8.6819
  11   1.0000      -0.319054        -8.6819
  12   1.0000      -0.319054        -8.6819
  13   0.0000       0.038411         1.0452
  14   0.0000       0.046241         1.2583
  15   0.0000       0.046241         1.2583
  16   0.0000       0.046241         1.2583
  17   0.0000       0.107240         2.9181

                 SPIN DOWN ORBITALS
  NO   OCC          E(Eh)            E(eV)
   0   1.0000      -6.673610      -181.5982
   1   1.0000      -4.251361      -115.6854
   2   1.0000      -4.251361      -115.6854
   3   1.0000      -4.251361      -115.6854
   4   1.0000      -1.300991       -35.4018
   5   1.0000      -1.300991       -35.4018
   6   1.0000      -1.300991       -35.4018
   7   1.0000      -1.300991       -35.4018
   8   1.0000      -1.300991       -35.4018
   9   1.0000      -0.577013       -15.7013
  10   0.0000       0.018282         0.4975
  11   0.0000       0.018282         0.4975
  12   0.0000       0.018282         0.4975
  13   0.0000       0.048922         1.3312
  14   0.0000       0.067427         1.8348

E(0)                                       ...   -213.594520502
E(0)                                       ...   -213.594520502
E(CORR)                                    ...     -0.240756029
E(TOT)                                     ...   -213.835276531
E(CCSD(T))                                 ...   -213.843242544

MULLIKEN ATOMIC CHARGES AND SPIN DENSITIES
------------------------------------------
   0 Bi:   -0.000000    3.000000
Sum of atomic charges       :   -0.0000000

LOEWDIN ATOMIC CHARGES AND SPIN DENSITIES
-----------------------------------------
   0 Bi:    0.000000    3.000000

FINAL SINGLE POINT ENERGY      -213.843242544137

DIPOLE MOMENT
-------------
                                X             Y             Z
Electronic contribution:      0.00000      -0.00000      -0.00000
Nuclear contribution   :      0.00000       0.00000       0.00000
                        -----------------------------------------
Total Dipole Moment    :      0.00000      -0.00000      -0.00000
                        -----------------------------------------
Magnitude (a.u.)       :      0.00000
Magnitude (Debye)      :      0.00000

Rotational constants in cm-1:     0.000000     0.000000     0.000000
Rotational constants in MHz :     0.000000     0.000000     0.000000

                             ****ORCA TERMINATED NORMALLY****
TOTAL RUN TIME: 0 days 0 hours 0 minutes 19 seconds 244 msec
