                         Program Version 4.2.0 -  RELEASE  -
|  1> # input to generate an atomic fitting density for Bi
|  2> # this file is use internally by ORCA
|  3> #
|  4> # atomic ground state (S=4): 1s2 2s2 2p6 3s2 3p6 4s2 3d10 4p6 5s2 4d10 5p6 6s2 4f14 5d10 6p3
|  5> #
|  6> ! RHF AllowRHF def2-SVP def2/J  NoMulliken NoLoewdin NoMayer NoPrintMOs
|  7>
|  8> %output print[p_atomdensfit] 2 end
|  9>
| 10> %scf
| 11>   guess hcore
| 12>   maxiter 1000
| 13>   maxdisk 500000
| 14>   SCFMode Conventional
| 15>   lshift 1.000000
| 16>   hftyp rohf
| 17>   rohf_case sahf
| 18>   rohf_numop   2
| 19>   rohf_norb[1] 3
| 20>   rohf_nel[1]  3
| 21> end
| 22>
| 23> %basis
| 24>   NewECP 83
| 25>     N_core 60
| 26>     lmax h
| 27>     s 2
| 28>       1      13.0430900000    283.2642270000  2
| 29>       2       8.2216820000     62.4719590000  2
| 30>     p 4
| 31>       1      10.4677770000     72.0014990000  2
| 32>       2       9.1189010000    144.0022770000  2
| 33>       3       6.7547910000      5.0079450000  2
| 34>       4       6.2525920000      9.9915500000  2
| 35>     d 4
| 36>       1       8.0814740000     36.3962590000  2
| 37>       2       7.8905950000     54.5976640000  2
| 38>       3       4.9555560000      9.9842940000  2
| 39>       4       4.7045590000     14.9814850000  2
| 40>     f 2
| 41>       1       4.2145460000     13.7133830000  2
| 42>       2       4.1334000000     18.1943080000  2
| 43>     g 2
| 44>       1       6.2057090000    -10.2474430000  2
| 45>       2       6.2277820000    -12.9557100000  2
| 46>     h 1
| 47>       1       1.0000000000      0.0000000000  2
| 48>   end
| 49>   NewGTO 83
| 50>     s 10
| 51>      1    8131.0900000000      0.0000311821
| 52>      2    1225.7700000000      0.0002150489
| 53>      3     274.6720000000      0.0007354672
| 54>      4      37.6164000000      0.0217392922
| 55>      5      23.4804000000     -0.1713143968
| 56>      6      14.1065000000      0.6577549849
| 57>      7       8.8130500000     -0.5856351141
| 58>      8       5.5077800000     -0.6848059847
| 59>      9       2.0397700000      0.8297639896
| 60>     10       1.0944000000      0.6864005722
| 61>     s 10
| 62>      1    8131.0900000000      0.0000184136
| 63>      2    1225.7700000000      0.0001249497
| 64>      3     274.6720000000      0.0004537647
| 65>      4      37.6164000000      0.0108535249
| 66>      5      23.4804000000     -0.0893311391
| 67>      6      14.1065000000      0.3696735321
| 68>      7       8.8130500000     -0.3857420626
| 69>      8       5.5077800000     -0.3465065437
| 70>      9       2.0397700000      0.6283943670
| 71>     10       1.0944000000      0.6952016798
| 72>     s 1
| 73>      1       0.4915260000      1.0000000000
| 74>     s 1
| 75>      1       0.2899030000      1.0000000000
| 76>     s 1
| 77>      1       0.1381930000      1.0000000000
| 78>     s 1
| 79>      1       0.0635850000      1.0000000000
| 80>     s 1
| 81>      1       0.0253000000      1.0000000000
| 82>     p 7
| 83>      1      99.5914000000      0.0003992118
| 84>      2      19.8964000000     -0.0230481361
| 85>      3      12.4376000000      0.2024280778
| 86>      4       7.7740000000     -0.4379284310
| 87>      5       4.8399500000     -0.0637608178
| 88>      6       2.2547800000      0.6102217862
| 89>      7       1.1804900000      0.6014991236
| 90>     p 7
| 91>      1      99.5914000000     -0.0002891909
| 92>      2      19.8964000000      0.0159797888
| 93>      3      12.4376000000     -0.1526211775
| 94>      4       7.7740000000      0.3593184061
| 95>      5       4.8399500000      0.0058634125
| 96>      6       2.2547800000     -0.5283014228
| 97>      7       1.1804900000     -0.6269845119
| 98>     p 1
| 99>      1       0.5942240000      1.0000000000
|100>     p 1
|101>      1       0.2579700000      1.0000000000
|102>     p 1
|103>      1       0.1128680000      1.0000000000
|104>     p 1
|105>      1       0.0478850000      1.0000000000
|106>     p 1
|107>      1       0.0183000000      1.0000000000
|108>   end
|109>   NewAuxGTO 83
|110>     S 1
|111>      1 1310.72 1.0
|112>     S 1
|113>      1  655.36 1.0
|114>     S 1
|115>      1  327.68 1.0
|116>     S 1
|117>      1  163.84 1.0
|118>     S 1
|119>      1   81.82 1.0
|120>     S 1
|121>      1   40.96 1.0
|122>     S 1
|123>      1   20.48 1.0
|124>     S 1
|125>      1   10.24 1.0
|126>     S 1
|127>      1    5.12 1.0
|128>     S 1
|129>      1    2.56 1.0
|130>     S 1
|131>      1    1.28 1.0
|132>     S 1
|133>      1    0.64 1.0
|134>     S 1
|135>      1    0.32 1.0
|136>     S 1
|137>      1    0.16 1.0
|138>     S 1
|139>      1    0.08 1.0
|140>     S 1
|141>      1    0.04 1.0
|142>     S 1
|143>      1    0.02 1.0
|144>     S 1
|145>      1    0.01 1.0
|146>   end
|147> end
|148>
|149> * xyz 0 4
|150> 83  0.0 0.0 0.0
|151> *
|152>
|153>
|154>                          ****END OF INPUT****

CARTESIAN COORDINATES (ANGSTROEM)
---------------------------------
  Bi     0.000000    0.000000    0.000000

 Total Charge           Charge          ....    0
 Multiplicity           Mult            ....    4
 Number of Electrons    NEL             ....   23
 Basis Dimension        Dim             ....   28

ORBITAL ENERGIES
----------------

  NO   OCC          E(Eh)            E(eV)
   0   2.0000     -10.013688      -272.4863
   1   2.0000      -7.275417      -197.9742
   2   2.0000      -7.275417      -197.9742
   3   2.0000      -7.267959      -197.7712
   4   2.0000      -2.613782       -71.1246
   5   2.0000      -1.697602       -46.1941
   6   2.0000      -1.697602       -46.1941
   7   2.0000      -1.685609       -45.8678
   8   2.0000      -0.525085       -14.2883
   9   2.0000      -0.276105        -7.5132
  10   1.0000      -0.322164        -8.7665
  11   1.0000      -0.322164        -8.7665
  12   1.0000      -0.083401        -2.2695
  13   0.0000       0.030222         0.8224
  14   0.0000       0.030222         0.8224
  15   0.0000       0.037667         1.0250
  16   0.0000       0.249663         6.7937
  17   0.0000       0.249663         6.7937

CleanUpVectors: The p-vectors have cracked symmetry
CleanUpVectors: The p-vectors have cracked symmetry
CleanUpVectors: The p-vectors have cracked symmetry
CleanUpVectors: The p-vectors have cracked symmetry
CleanUpVectors: The p-vectors have cracked symmetry
CleanUpVectors: The p-vectors have cracked symmetry
CleanUpVectors: The p-vectors have cracked symmetry
CleanUpVectors: The p-vectors have cracked symmetry
CleanUpVectors: The p-vectors have cracked symmetry
CleanUpVectors: The p-vectors have cracked symmetry
CleanUpVectors: The p-vectors have cracked symmetry
CleanUpVectors: The p-vectors have cracked symmetry
CleanUpVectors: The p-vectors have cracked symmetry
CleanUpVectors: The p-vectors have cracked symmetry
CleanUpVectors: The p-vectors have cracked symmetry
CleanUpVectors: The p-vectors have cracked symmetry
CleanUpVectors: The p-vectors have cracked symmetry
CleanUpVectors: The p-vectors have cracked symmetry
CleanUpVectors: The p-vectors have cracked symmetry
CleanUpVectors: The p-vectors have cracked symmetry
--------------------------
ATOM BASIS FOR ELEMENT Bi
--------------------------
 NewGTO Bi
 S 25
    1       8131.090000000000         0.000025859370
    2       1225.770000000000         0.000178340427
    3        274.672000000000         0.000609924228
    4         37.616400000000         0.018028432814
    5         23.480400000000        -0.142071327090
    6         14.106500000000         0.545477352461
    7          8.813050000000        -0.485668218228
    8          5.507780000000        -0.567910793622
    9          2.039770000000         0.688124719090
   10          1.094400000000         0.569233187808
   11       8131.090000000000         0.000005636508
   12       1225.770000000000         0.000038247814
   13        274.672000000000         0.000138899955
   14         37.616400000000         0.003322325698
   15         23.480400000000        -0.027344769725
   16         14.106500000000         0.113159170594
   17          8.813050000000        -0.118077839166
   18          5.507780000000        -0.106067623689
   19          2.039770000000         0.192355089562
   20          1.094400000000         0.212805187959
   21          0.491526000000        -0.339771715789
   22          0.289903000000         0.299816032738
   23          0.138193000000        -0.135022416248
   24          0.063585000000         0.050782767670
   25          0.025300000000        -0.011009633350
 P 44
    1         99.591400000000        -0.000004278266
    2         19.896400000000         0.000247001856
    3         12.437600000000        -0.002169377635
    4          7.774000000000         0.004693183644
    5          4.839950000000         0.000683310802
    6          2.254780000000        -0.006539614018
    7          1.180490000000        -0.006446135143
    8         99.591400000000        -0.000020470244
    9         19.896400000000         0.001181831202
   10         12.437600000000        -0.010379833641
   11          7.774000000000         0.022455502763
   12          4.839950000000         0.003269441121
   13          2.254780000000        -0.031290128788
   14          1.180490000000        -0.030842859873
   15         99.591400000000        -0.000274652867
   16         19.896400000000         0.015856837551
   17         12.437600000000        -0.139268057579
   18          7.774000000000         0.301289438732
   19          4.839950000000         0.043866667812
   20          2.254780000000        -0.419825173365
   21          1.180490000000        -0.413824087496
   22         99.591400000000        -0.000001575065
   23         19.896400000000         0.000087033183
   24         12.437600000000        -0.000831244204
   25          7.774000000000         0.001957011126
   26          4.839950000000         0.000031934806
   27          2.254780000000        -0.002877369333
   28          1.180490000000        -0.003414842226
   29         99.591400000000        -0.000007536222
   30         19.896400000000         0.000416428169
   31         12.437600000000        -0.003977258922
   32          7.774000000000         0.009363722387
   33          4.839950000000         0.000152798649
   34          2.254780000000        -0.013767365589
   35          1.180490000000        -0.016339015231
   36         99.591400000000        -0.000101114820
   37         19.896400000000         0.005587290153
   38         12.437600000000        -0.053363584013
   39          7.774000000000         0.125634713776
   40          4.839950000000         0.002050126402
   41          2.254780000000        -0.184719170836
   42          1.180490000000        -0.219223447386
   43          0.594224000000         0.001332349920
   44          0.594224000000         0.006374902323
 S 25
    1       8131.090000000000        -0.000018205332
    2       1225.770000000000        -0.000125553974
    3        274.672000000000        -0.000429394567
    4         37.616400000000        -0.012692250544
    5         23.480400000000         0.100020057043
    6         14.106500000000        -0.384023131381
    7          8.813050000000         0.341916725112
    8          5.507780000000         0.399816564937
    9          2.039770000000        -0.484448727730
   10          1.094400000000        -0.400747547596
   11       8131.090000000000         0.000041351957
   12       1225.770000000000         0.000280603177
   13        274.672000000000         0.001019032592
   14         37.616400000000         0.024374076719
   15         23.480400000000        -0.200613538721
   16         14.106500000000         0.830186608984
   17          8.813050000000        -0.866272175541
   18          5.507780000000        -0.778159828946
   19          2.039770000000         1.411203517008
   20          1.094400000000         1.561234643536
   21          0.491526000000        -1.950747913684
   22          0.289903000000         0.209738614220
   23          0.138193000000        -0.329215789826
   24          0.063585000000         0.115381395460
   25          0.025300000000        -0.024474234527
 P 38
    1         99.591400000000         0.000290867190
    2         19.896400000000        -0.016792956987
    3         12.437600000000         0.147489844241
    4          7.774000000000        -0.319076270342
    5          4.839950000000        -0.046456367062
    6          2.254780000000         0.444609844530
    7          1.180490000000         0.438254480382
    8         99.591400000000        -0.000060579607
    9         19.896400000000         0.003497509392
   10         12.437600000000        -0.030718063284
   11          7.774000000000         0.066454779414
   12          4.839950000000         0.009675578890
   13          2.254780000000        -0.092599957721
   14          1.180490000000        -0.091276310800
   15         99.591400000000        -0.000503785096
   16         19.896400000000         0.027837595973
   17         12.437600000000        -0.265873769003
   18          7.774000000000         0.625950739385
   19          4.839950000000         0.010214359541
   20          2.254780000000        -0.920327655376
   21          1.180490000000        -1.092238560964
   22         99.591400000000         0.000104924529
   23         19.896400000000        -0.005797802819
   24         12.437600000000         0.055374166973
   25          7.774000000000        -0.130368260432
   26          4.839950000000        -0.002127369138
   27          2.254780000000         0.191678846129
   28          1.180490000000         0.227483142378
   29          0.594224000000         1.008836853021
   30          0.594224000000        -0.210112868813
   31          0.257970000000         0.442825731436
   32          0.257970000000        -0.092228376211
   33          0.112868000000         0.037254601777
   34          0.112868000000        -0.007759105184
   35          0.047885000000        -0.007390930941
   36          0.047885000000         0.001539326898
   37          0.018300000000         0.002397661398
   38          0.018300000000        -0.000499366685
 S 25
    1       8131.090000000000        -0.000009300643
    2       1225.770000000000        -0.000064142348
    3        274.672000000000        -0.000219366818
    4         37.616400000000        -0.006484149597
    5         23.480400000000         0.051097715911
    6         14.106500000000        -0.196187699256
    7          8.813050000000         0.174676601891
    8          5.507780000000         0.204256164772
    9          2.039770000000        -0.247492594937
   10          1.094400000000        -0.204731780252
   11       8131.090000000000         0.000014539108
   12       1225.770000000000         0.000098658449
   13        274.672000000000         0.000358285945
   14         37.616400000000         0.008569783918
   15         23.480400000000        -0.070534555944
   16         14.106500000000         0.291888793692
   17          8.813050000000        -0.304576269470
   18          5.507780000000        -0.273596479771
   19          2.039770000000         0.496170966595
   20          1.094400000000         0.548921039970
   21          0.491526000000        -1.056254713843
   22          0.289903000000         0.372625165089
   23          0.138193000000        -0.304326199680
   24          0.063585000000         2.174216482694
   25          0.025300000000        -2.157986712439
 S 25
    1       8131.090000000000        -0.000010744037
    2       1225.770000000000        -0.000074096782
    3        274.672000000000        -0.000253410981
    4         37.616400000000        -0.007490443298
    5         23.480400000000         0.059027716430
    6         14.106500000000        -0.226634628814
    7          8.813050000000         0.201785162791
    8          5.507780000000         0.235955262544
    9          2.039770000000        -0.285901677833
   10          1.094400000000        -0.236504690150
   11       8131.090000000000         0.000019114040
   12       1225.770000000000         0.000129702694
   13        274.672000000000         0.000471025574
   14         37.616400000000         0.011266384958
   15         23.480400000000        -0.092729229548
   16         14.106500000000         0.383735639790
   17          8.813050000000        -0.400415405304
   18          5.507780000000        -0.359687396290
   19          2.039770000000         0.652298023858
   20          1.094400000000         0.721646637415
   21          0.491526000000         0.189062919870
   22          0.289903000000        -4.839200836563
   23          0.138193000000         8.994849082075
   24          0.063585000000        -7.147452172727
   25          0.025300000000         2.287424451518
 S 25
    1       8131.090000000000        -0.000079279262
    2       1225.770000000000        -0.000546753366
    3        274.672000000000        -0.001869896416
    4         37.616400000000        -0.055271294985
    5         23.480400000000         0.435560112700
    6         14.106500000000        -1.672316166669
    7          8.813050000000         1.488954233053
    8          5.507780000000         1.741092269213
    9          2.039770000000        -2.109642292622
   10          1.094400000000        -1.745146445185
   11       8131.090000000000         0.000105117972
   12       1225.770000000000         0.000713302073
   13        274.672000000000         0.002590412793
   14         37.616400000000         0.061959667085
   15         23.480400000000        -0.509965904162
   16         14.106500000000         2.110360384312
   17          8.813050000000        -2.202091025693
   18          5.507780000000        -1.978106678548
   19          2.039770000000         3.587323577937
   20          1.094400000000         3.968707404673
   21          0.491526000000       -14.708988573546
   22          0.289903000000        20.036042818967
   23          0.138193000000       -12.517925395427
   24          0.063585000000         5.238951832128
   25          0.025300000000        -1.128978949446
 P 44
    1         99.591400000000         0.000061455344
    2         19.896400000000        -0.003548069293
    3         12.437600000000         0.031162122772
    4          7.774000000000        -0.067415447899
    5          4.839950000000        -0.009815448795
    6          2.254780000000         0.093938580193
    7          1.180490000000         0.092595798669
    8         99.591400000000         0.000295071958
    9         19.896400000000        -0.017035715517
   10         12.437600000000         0.149621953421
   11          7.774000000000        -0.323688828235
   12          4.839950000000        -0.047127939042
   13          2.254780000000         0.451037112360
   14          1.180490000000         0.444589875241
   15         99.591400000000        -0.000022949395
   16         19.896400000000         0.001324962798
   17         12.437600000000        -0.011636935461
   18          7.774000000000         0.025175089065
   19          4.839950000000         0.003665403188
   20          2.254780000000        -0.035079676791
   21          1.180490000000        -0.034578239131
   22         99.591400000000        -0.000105928175
   23         19.896400000000         0.005853261159
   24         12.437600000000        -0.055903843378
   25          7.774000000000         0.131615285812
   26          4.839950000000         0.002147718288
   27          2.254780000000        -0.193512332172
   28          1.180490000000        -0.229659111063
   29         99.591400000000        -0.000508604005
   30         19.896400000000         0.028103873889
   31         12.437600000000        -0.268416959629
   32          7.774000000000         0.631938212534
   33          4.839950000000         0.010312064040
   34          2.254780000000        -0.929130963333
   35          1.180490000000        -1.102686266581
   36         99.591400000000         0.000039556976
   37         19.896400000000        -0.002185795327
   38         12.437600000000         0.020876286964
   39          7.774000000000        -0.049149366294
   40          4.839950000000        -0.000802026848
   41          2.254780000000         0.072263707348
   42          1.180490000000         0.085762073173
   43          0.594224000000         0.213512643408
   44          0.594224000000         1.025160545722
 P 44
    1         99.591400000000         0.000003076784
    2         19.896400000000        -0.000177635371
    3         12.437600000000         0.001560142935
    4          7.774000000000        -0.003375178755
    5          4.839950000000        -0.000491413990
    6          2.254780000000         0.004703068955
    7          1.180490000000         0.004635842113
    8         99.591400000000         0.000014772633
    9         19.896400000000        -0.000852884746
   10         12.437600000000         0.007490749746
   11          7.774000000000        -0.016205322498
   12          4.839950000000        -0.002359437164
   13          2.254780000000         0.022580951910
   14          1.180490000000         0.022258174144
   15         99.591400000000         0.000198178406
   16         19.896400000000        -0.011441652948
   17         12.437600000000         0.100490200296
   18          7.774000000000        -0.217398279057
   19          4.839950000000        -0.031652414138
   20          2.254780000000         0.302928873240
   21          1.180490000000         0.298598732277
   22         99.591400000000        -0.000004514176
   23         19.896400000000         0.000249439300
   24         12.437600000000        -0.002382366889
   25          7.774000000000         0.005608843329
   26          4.839950000000         0.000091525960
   27          2.254780000000        -0.008246613200
   28          1.180490000000        -0.009787024091
   29         99.591400000000        -0.000021674015
   30         19.896400000000         0.001197638584
   31         12.437600000000        -0.011438512312
   32          7.774000000000         0.026929867004
   33          4.839950000000         0.000439445673
   34          2.254780000000        -0.039594651463
   35          1.180490000000        -0.046990661297
   36         99.591400000000        -0.000290762096
   37         19.896400000000         0.016066608188
   38         12.437600000000        -0.153450379770
   39          7.774000000000         0.361270609870
   40          4.839950000000         0.005895268859
   41          2.254780000000        -0.531171723936
   42          1.180490000000        -0.630390965639
   43          0.594224000000         0.010723375999
   44          0.594224000000         0.051486389005
 P 44
    1         99.591400000000         0.000015272556
    2         19.896400000000        -0.000881747350
    3         12.437600000000         0.007744245365
    4          7.774000000000        -0.016753729320
    5          4.839950000000        -0.002439283241
    6          2.254780000000         0.023345117392
    7          1.180490000000         0.023011416454
    8         99.591400000000         0.000073329717
    9         19.896400000000        -0.004233625607
   10         12.437600000000         0.037183253780
   11          7.774000000000        -0.080441429689
   12          4.839950000000        -0.011711985290
   13          2.254780000000         0.112089349388
   14          1.180490000000         0.110487116236
   15         99.591400000000        -0.000005703262
   16         19.896400000000         0.000329272723
   17         12.437600000000        -0.002891949440
   18          7.774000000000         0.006256379524
   19          4.839950000000         0.000910906547
   20          2.254780000000        -0.008717815099
   21          1.180490000000        -0.008593200473
   22         99.591400000000        -0.000021633227
   23         19.896400000000         0.001195384794
   24         12.437600000000        -0.011416986617
   25          7.774000000000         0.026879188726
   26          4.839950000000         0.000438618697
   27          2.254780000000        -0.039520139816
   28          1.180490000000        -0.046902231384
   29         99.591400000000        -0.000103869873
   30         19.896400000000         0.005739525812
   31         12.437600000000        -0.054817569787
   32          7.774000000000         0.129057855042
   33          4.839950000000         0.002105985743
   34          2.254780000000        -0.189752173239
   35          1.180490000000        -0.225196580183
   36         99.591400000000         0.000008078540
   37         19.896400000000        -0.000446394997
   38         12.437600000000         0.004263468743
   39          7.774000000000        -0.010037550610
   40          4.839950000000        -0.000163794280
   41          2.254780000000         0.014758086919
   42          1.180490000000         0.017514796523
   43          0.594224000000         0.059071875295
   44          0.594224000000         0.283627962017
 P 44
    1         99.591400000000         0.000030502747
    2         19.896400000000        -0.001761048795
    3         12.437600000000         0.015467008743
    4          7.774000000000        -0.033460984981
    5          4.839950000000        -0.004871800084
    6          2.254780000000         0.046625477082
    7          1.180490000000         0.045959000869
    8         99.591400000000         0.000146456023
    9         19.896400000000        -0.008455507437
   10         12.437600000000         0.074263363847
   11          7.774000000000        -0.160659720548
   12          4.839950000000        -0.023391482362
   13          2.254780000000         0.223867770858
   14          1.180490000000         0.220667749036
   15         99.591400000000        -0.000011390703
   16         19.896400000000         0.000657632066
   17         12.437600000000        -0.005775876818
   18          7.774000000000         0.012495404293
   19          4.839950000000         0.001819286304
   20          2.254780000000        -0.017411447596
   21          1.180490000000        -0.017162564016
   22         99.591400000000        -0.000044885214
   23         19.896400000000         0.002480217199
   24         12.437600000000        -0.023688277369
   25          7.774000000000         0.055769678934
   26          4.839950000000         0.000910058118
   27          2.254780000000        -0.081997471406
   28          1.180490000000        -0.097314037721
   29         99.591400000000        -0.000215512065
   30         19.896400000000         0.011908525776
   31         12.437600000000        -0.113736999213
   32          7.774000000000         0.267772781873
   33          4.839950000000         0.004369557055
   34          2.254780000000        -0.393703020077
   35          1.180490000000        -0.467244048990
   36         99.591400000000         0.000016761578
   37         19.896400000000        -0.000926192599
   38         12.437600000000         0.008845962033
   39          7.774000000000        -0.020826185660
   40          4.839950000000        -0.000339844871
   41          2.254780000000         0.030620484030
   42          1.180490000000         0.036340180824
   43          0.594224000000         0.081524067828
   44          0.594224000000         0.391430018056
 P 44
    1         99.591400000000         0.000167466523
    2         19.896400000000        -0.009668529874
    3         12.437600000000         0.084917145098
    4          7.774000000000        -0.183707875519
    5          4.839950000000        -0.026747211531
    6          2.254780000000         0.255983717892
    7          1.180490000000         0.252324622703
    8         99.591400000000         0.000804074501
    9         19.896400000000        -0.046422521887
   10         12.437600000000         0.407721554203
   11          7.774000000000        -0.882055802029
   12          4.839950000000        -0.128424179161
   13          2.254780000000         1.229081349692
   14          1.180490000000         1.211512553947
   15         99.591400000000        -0.000062537367
   16         19.896400000000         0.003610538954
   17         12.437600000000        -0.031710783771
   18          7.774000000000         0.068602408981
   19          4.839950000000         0.009988266096
   20          2.254780000000        -0.095592525131
   21          1.180490000000        -0.094226101705
   22         99.591400000000        -0.000213421576
   23         19.896400000000         0.011793011837
   24         12.437600000000        -0.112633738495
   25          7.774000000000         0.265175358047
   26          4.839950000000         0.004327171897
   27          2.254780000000        -0.389884059847
   28          1.180490000000        -0.462711733133
   29         99.591400000000        -0.001024723293
   30         19.896400000000         0.056623018939
   31         12.437600000000        -0.540800127722
   32          7.774000000000         1.273214131190
   33          4.839950000000         0.020776502192
   34          2.254780000000        -1.871991040864
   35          1.180490000000        -2.221666151903
   36         99.591400000000         0.000079698457
   37         19.896400000000        -0.004403888613
   38         12.437600000000         0.042061048126
   39          7.774000000000        -0.099024978179
   40          4.839950000000        -0.001615904682
   41          2.254780000000         0.145595204633
   42          1.180490000000         0.172791392134
   43          0.594224000000         0.822588904950
   44          0.594224000000         3.949581988518
 P 44
    1         99.591400000000        -0.001491622143
    2         19.896400000000         0.086117469872
    3         12.437600000000        -0.756355907290
    4          7.774000000000         1.636283658656
    5          4.839950000000         0.238237065336
    6          2.254780000000        -2.280043646938
    7          1.180490000000        -2.247452133663
    8         99.591400000000        -0.007161881108
    9         19.896400000000         0.413484798061
   10         12.437600000000        -3.631570575074
   11          7.774000000000         7.856459545000
   12          4.839950000000         1.143872491809
   13          2.254780000000       -10.947411580039
   14          1.180490000000       -10.790926545064
   15         99.591400000000         0.000557019528
   16         19.896400000000        -0.032159024071
   17         12.437600000000         0.282447543624
   18          7.774000000000        -0.611040775388
   19          4.839950000000        -0.088965357784
   20          2.254780000000         0.851441393168
   21          1.180490000000         0.839270677267
   22         99.591400000000         0.001063860552
   23         19.896400000000        -0.058785622020
   24         12.437600000000         0.561454908135
   25          7.774000000000        -1.321842001175
   26          4.839950000000        -0.021570019184
   27          2.254780000000         1.943487998617
   28          1.180490000000         2.306518251906
   29         99.591400000000         0.005108024728
   30         19.896400000000        -0.282253543744
   31         12.437600000000         2.695772061753
   32          7.774000000000        -6.346697989786
   33          4.839950000000        -0.103566384842
   34          2.254780000000         9.331471812086
   35          1.180490000000        11.074526864608
   36         99.591400000000        -0.000397279636
   37         19.896400000000         0.021952435857
   38         12.437600000000        -0.209665262253
   39          7.774000000000         0.493618179871
   40          4.839950000000         0.008054936672
   41          2.254780000000        -0.725760724524
   42          1.180490000000        -0.861327859407
   43          0.594224000000         0.129899016235
   44          0.594224000000         0.623697707049
 end
  // -----------------------------------------------
  // The basis set
  // -----------------------------------------------
  BAS[ATNO] = new BFNGauss[NSH];
  // Basis function   1 L = s
  InitBFNGauss(BAS[ATNO][  0]);
  BAS[ATNO][  0].l  = 0;
  BAS[ATNO][  0].ng = 25;
  BAS[ATNO][  0].a[  0] =      8131.090000000000;     BAS[ATNO][  0].d[  0] =         0.000025859370;
  BAS[ATNO][  0].a[  1] =      1225.770000000000;     BAS[ATNO][  0].d[  1] =         0.000178340427;
  BAS[ATNO][  0].a[  2] =       274.672000000000;     BAS[ATNO][  0].d[  2] =         0.000609924228;
  BAS[ATNO][  0].a[  3] =        37.616400000000;     BAS[ATNO][  0].d[  3] =         0.018028432814;
  BAS[ATNO][  0].a[  4] =        23.480400000000;     BAS[ATNO][  0].d[  4] =        -0.142071327090;
  BAS[ATNO][  0].a[  5] =        14.106500000000;     BAS[ATNO][  0].d[  5] =         0.545477352461;
  BAS[ATNO][  0].a[  6] =         8.813050000000;     BAS[ATNO][  0].d[  6] =        -0.485668218228;
  BAS[ATNO][  0].a[  7] =         5.507780000000;     BAS[ATNO][  0].d[  7] =        -0.567910793622;
  BAS[ATNO][  0].a[  8] =         2.039770000000;     BAS[ATNO][  0].d[  8] =         0.688124719090;
  BAS[ATNO][  0].a[  9] =         1.094400000000;     BAS[ATNO][  0].d[  9] =         0.569233187808;
  BAS[ATNO][  0].a[ 10] =      8131.090000000000;     BAS[ATNO][  0].d[ 10] =         0.000005636508;
  BAS[ATNO][  0].a[ 11] =      1225.770000000000;     BAS[ATNO][  0].d[ 11] =         0.000038247814;
  BAS[ATNO][  0].a[ 12] =       274.672000000000;     BAS[ATNO][  0].d[ 12] =         0.000138899955;
  BAS[ATNO][  0].a[ 13] =        37.616400000000;     BAS[ATNO][  0].d[ 13] =         0.003322325698;
  BAS[ATNO][  0].a[ 14] =        23.480400000000;     BAS[ATNO][  0].d[ 14] =        -0.027344769725;
  BAS[ATNO][  0].a[ 15] =        14.106500000000;     BAS[ATNO][  0].d[ 15] =         0.113159170594;
  BAS[ATNO][  0].a[ 16] =         8.813050000000;     BAS[ATNO][  0].d[ 16] =        -0.118077839166;
  BAS[ATNO][  0].a[ 17] =         5.507780000000;     BAS[ATNO][  0].d[ 17] =        -0.106067623689;
  BAS[ATNO][  0].a[ 18] =         2.039770000000;     BAS[ATNO][  0].d[ 18] =         0.192355089562;
  BAS[ATNO][  0].a[ 19] =         1.094400000000;     BAS[ATNO][  0].d[ 19] =         0.212805187959;
  BAS[ATNO][  0].a[ 20] =         0.491526000000;     BAS[ATNO][  0].d[ 20] =        -0.339771715789;
  BAS[ATNO][  0].a[ 21] =         0.289903000000;     BAS[ATNO][  0].d[ 21] =         0.299816032738;
  BAS[ATNO][  0].a[ 22] =         0.138193000000;     BAS[ATNO][  0].d[ 22] =        -0.135022416248;
  BAS[ATNO][  0].a[ 23] =         0.063585000000;     BAS[ATNO][  0].d[ 23] =         0.050782767670;
  BAS[ATNO][  0].a[ 24] =         0.025300000000;     BAS[ATNO][  0].d[ 24] =        -0.011009633350;

FINAL SINGLE POINT ENERGY      -192.643025588118

DIPOLE MOMENT
-------------
                                X             Y             Z
Electronic contribution:      0.00000       0.00000       0.00000
Nuclear contribution   :      0.00000       0.00000       0.00000
                        -----------------------------------------
Total Dipole Moment    :      0.00000       0.00000       0.00000
                        -----------------------------------------
Magnitude (a.u.)       :      0.00000
Magnitude (Debye)      :      0.00000

Rotational constants in cm-1:     0.000000     0.000000     0.000000
Rotational constants in MHz :     0.000000     0.000000     0.000000

                             ****ORCA TERMINATED NORMALLY****
TOTAL RUN TIME: 0 days 0 hours 0 minutes 0 seconds 983 msec
