                         Program Version 4.2.0 -  RELEASE  -
|  1> # input to generate an atomic fitting density for Po
|  2> # this file is use internally by ORCA
|  3> #
|  4> # atomic ground state (S=3): 1s2 2s2 2p6 3s2 3p6 4s2 3d10 4p6 5s2 4d10 5p6 6s2 4f14 5d10 6p4
|  5> #
|  6> ! RHF AllowRHF def2-SVP def2/J  NoMulliken NoLoewdin NoMayer NoPrintMOs
|  7>
|  8> %output print[p_atomdensfit] 2 end
|  9>
| 10> %scf
| 11>   guess hcore
| 12>   maxiter 1000
| 13>   maxdisk 500000
| 14>   SCFMode Conventional
| 15>   lshift 1.000000
| 16>   hftyp rohf
| 17>   rohf_case sahf
| 18>   rohf_numop   2
| 19>   rohf_norb[1] 3
| 20>   rohf_nel[1]  4
| 21> end
| 22>
| 23> %basis
| 24>   NewECP 84
| 25>     N_core 60
| 26>     lmax h
| 27>     s 2
| 28>       1      13.2772270000    283.2447060000  2
| 29>       2       8.3995180000     62.3964610000  2
| 30>     p 4
| 31>       1      10.6656820000     71.9917160000  2
| 32>       2       9.2837530000    143.9718710000  2
| 33>       3       6.8727490000      4.9496150000  2
| 34>       4       6.3261500000      9.7404990000  2
| 35>     d 4
| 36>       1       8.2148660000     36.3783830000  2
| 37>       2       8.0086960000     54.5627150000  2
| 38>       3       5.0552270000      9.8894990000  2
| 39>       4       4.7825530000     14.6938770000  2
| 40>     f 4
| 41>       1       5.0132700000     17.4282950000  2
| 42>       2       4.9846400000     23.3803530000  2
| 43>       3       1.3267600000      0.1633920000  2
| 44>       4       1.5287580000      0.3245660000  2
| 45>     g 2
| 46>       1       6.7715260000    -11.5632940000  2
| 47>       2       6.7779250000    -14.5097880000  2
| 48>     h 1
| 49>       1       1.0000000000      0.0000000000  2
| 50>   end
| 51>   NewGTO 84
| 52>     s 10
| 53>      1    8913.2900000000      0.0000507026
| 54>      2    1338.9800000000      0.0003570757
| 55>      3     299.5380000000      0.0012524618
| 56>      4      51.1489000000      0.0085212709
| 57>      5      23.0156000000     -0.1611123241
| 58>      6      14.3765000000      0.6885217107
| 59>      7       8.9827900000     -0.6656958377
| 60>      8       5.6129200000     -0.6528734771
| 61>      9       2.1648400000      0.8372248464
| 62>     10       1.1753800000      0.6983321219
| 63>     s 10
| 64>      1    8913.2900000000      0.0000307947
| 65>      2    1338.9800000000      0.0002106356
| 66>      3     299.5380000000      0.0007821848
| 67>      4      51.1489000000      0.0042632150
| 68>      5      23.0156000000     -0.0825716142
| 69>      6      14.3765000000      0.3793374497
| 70>      7       8.9827900000     -0.4280755686
| 71>      8       5.6129200000     -0.3156466676
| 72>      9       2.1648400000      0.6206088143
| 73>     10       1.1753800000      0.7069152069
| 74>     s 1
| 75>      1       0.5448700000      1.0000000000
| 76>     s 1
| 77>      1       0.3132160000      1.0000000000
| 78>     s 1
| 79>      1       0.1516620000      1.0000000000
| 80>     s 1
| 81>      1       0.0699970000      1.0000000000
| 82>     s 1
| 83>      1       0.0274000000      1.0000000000
| 84>     p 7
| 85>      1     113.5570000000      0.0004320813
| 86>      2      20.3639000000     -0.0203815095
| 87>      3      12.7274000000      0.1951355081
| 88>      4       7.9498400000     -0.4451475745
| 89>      5       4.9647700000     -0.0355177529
| 90>      6       2.3013000000      0.6319853351
| 91>      7       1.1954500000      0.5696573282
| 92>     p 7
| 93>      1     113.5570000000     -0.0003109854
| 94>      2      20.3639000000      0.0132811798
| 95>      3      12.7274000000     -0.1430228739
| 96>      4       7.9498400000      0.3583206188
| 97>      5       4.9647700000     -0.0173029455
| 98>      6       2.3013000000     -0.5491066370
| 99>      7       1.1954500000     -0.5958736928
|100>     p 1
|101>      1       0.5928970000      1.0000000000
|102>     p 1
|103>      1       0.2732770000      1.0000000000
|104>     p 1
|105>      1       0.1204340000      1.0000000000
|106>     p 1
|107>      1       0.0512190000      1.0000000000
|108>     p 1
|109>      1       0.0203000000      1.0000000000
|110>   end
|111>   NewAuxGTO 84
|112>     S 1
|113>      1 1310.72 1.0
|114>     S 1
|115>      1  655.36 1.0
|116>     S 1
|117>      1  327.68 1.0
|118>     S 1
|119>      1  163.84 1.0
|120>     S 1
|121>      1   81.82 1.0
|122>     S 1
|123>      1   40.96 1.0
|124>     S 1
|125>      1   20.48 1.0
|126>     S 1
|127>      1   10.24 1.0
|128>     S 1
|129>      1    5.12 1.0
|130>     S 1
|131>      1    2.56 1.0
|132>     S 1
|133>      1    1.28 1.0
|134>     S 1
|135>      1    0.64 1.0
|136>     S 1
|137>      1    0.32 1.0
|138>     S 1
|139>      1    0.16 1.0
|140>     S 1
|141>      1    0.08 1.0
|142>     S 1
|143>      1    0.04 1.0
|144>     S 1
|145>      1    0.02 1.0
|146>     S 1
|147>      1    0.01 1.0
|148>   end
|149> end
|150>
|151> * xyz 0 3
|152> 84  0.0 0.0 0.0
|153> *
|154>
|155>
|156>                          ****END OF INPUT****

CARTESIAN COORDINATES (ANGSTROEM)
---------------------------------
  Po     0.000000    0.000000    0.000000

 Total Charge           Charge          ....    0
 Multiplicity           Mult            ....    3
 Number of Electrons    NEL             ....   24
 Basis Dimension        Dim             ....   28

ORBITAL ENERGIES
----------------

  NO   OCC          E(Eh)            E(eV)
   0   2.0000     -10.865853      -295.6749
   1   2.0000      -7.968082      -216.8225
   2   2.0000      -7.968082      -216.8225
   3   2.0000      -7.962401      -216.6679
   4   2.0000      -2.935105       -79.8683
   5   2.0000      -1.936039       -52.6823
   6   2.0000      -1.936039       -52.6823
   7   2.0000      -1.926925       -52.4343
   8   2.0000      -0.623438       -16.9646
   9   2.0000      -0.334868        -9.1122
  10   1.3333      -0.351584        -9.5671
  11   1.3333      -0.351584        -9.5671
  12   1.3333      -0.091788        -2.4977
  13   0.0000       0.009168         0.2495
  14   0.0000       0.009168         0.2495
  15   0.0000       0.013692         0.3726
  16   0.0000       0.222653         6.0587
  17   0.0000       0.222653         6.0587

CleanUpVectors: The p-vectors have cracked symmetry
CleanUpVectors: The p-vectors have cracked symmetry
CleanUpVectors: The p-vectors have cracked symmetry
CleanUpVectors: The p-vectors have cracked symmetry
CleanUpVectors: The p-vectors have cracked symmetry
CleanUpVectors: The p-vectors have cracked symmetry
CleanUpVectors: The p-vectors have cracked symmetry
CleanUpVectors: The p-vectors have cracked symmetry
CleanUpVectors: The p-vectors have cracked symmetry
CleanUpVectors: The p-vectors have cracked symmetry
CleanUpVectors: The p-vectors have cracked symmetry
CleanUpVectors: The p-vectors have cracked symmetry
CleanUpVectors: The p-vectors have cracked symmetry
CleanUpVectors: The p-vectors have cracked symmetry
CleanUpVectors: The p-vectors have cracked symmetry
CleanUpVectors: The p-vectors have cracked symmetry
CleanUpVectors: The p-vectors have cracked symmetry
CleanUpVectors: The p-vectors have cracked symmetry
CleanUpVectors: The p-vectors have cracked symmetry
CleanUpVectors: The p-vectors have cracked symmetry
--------------------------
ATOM BASIS FOR ELEMENT Po
--------------------------
 NewGTO Po
 S 25
    1       8913.290000000001         0.000041778605
    2       1338.980000000000         0.000294227999
    3        299.538000000000         0.001032020182
    4         51.148900000000         0.007021470473
    5         23.015600000000        -0.132755482107
    6         14.376500000000         0.567337304306
    7          8.982790000000        -0.548528936966
    8          5.612920000000        -0.537963397224
    9          2.164840000000         0.689867697813
   10          1.175380000000         0.575421017801
   11       8913.290000000001         0.000009784254
   12       1338.980000000000         0.000066924251
   13        299.538000000000         0.000248519871
   14         51.148900000000         0.001354531106
   15         23.015600000000        -0.026235087821
   16         14.376500000000         0.120525090893
   17          8.982790000000        -0.136010422528
   18          5.612920000000        -0.100288920413
   19          2.164840000000         0.197183098614
   20          1.175380000000         0.224604819884
   21          0.544870000000        -0.334390451977
   22          0.313216000000         0.289505351059
   23          0.151662000000        -0.135419083413
   24          0.069997000000         0.049913194249
   25          0.027400000000        -0.010525750116
 P 44
    1        113.557000000000         0.000004433433
    2         20.363900000000        -0.000209127439
    3         12.727400000000         0.002002216232
    4          7.949840000000        -0.004567501363
    5          4.964770000000        -0.000364435064
    6          2.301300000000         0.006484577351
    7          1.195450000000         0.005845051780
    8        113.557000000000         0.000023561699
    9         20.363900000000        -0.001111418127
   10         12.727400000000         0.010640877256
   11          7.949840000000        -0.024274212045
   12          4.964770000000        -0.001936808184
   13          2.301300000000         0.034462607262
   14          1.195450000000         0.031063816968
   15        113.557000000000        -0.000316579327
   16         20.363900000000         0.014933218711
   17         12.727400000000        -0.142972787207
   18          7.949840000000         0.326152785132
   19          4.964770000000         0.026023311579
   20          2.301300000000        -0.463045940297
   21          1.195450000000        -0.417379167733
   22        113.557000000000         0.000001427224
   23         20.363900000000        -0.000060952131
   24         12.727400000000         0.000656383621
   25          7.949840000000        -0.001644462726
   26          4.964770000000         0.000079409466
   27          2.301300000000         0.002520048666
   28          1.195450000000         0.002734679575
   29        113.557000000000         0.000007585054
   30         20.363900000000        -0.000323933115
   31         12.727400000000         0.003488383238
   32          7.949840000000        -0.008739578547
   33          4.964770000000         0.000422025536
   34          2.301300000000         0.013392923356
   35          1.195450000000         0.014533589944
   36        113.557000000000        -0.000101914186
   37         20.363900000000         0.004352425006
   38         12.727400000000        -0.046870559857
   39          7.949840000000         0.117426587464
   40          4.964770000000        -0.005670412855
   41          2.301300000000        -0.179949785621
   42          1.195450000000        -0.195275992041
   43          0.592897000000        -0.001797225923
   44          0.592897000000        -0.009551446114
 S 25
    1       8913.290000000001        -0.000030419397
    2       1338.980000000000        -0.000214230186
    3        299.538000000000        -0.000751423646
    4         51.148900000000        -0.005112398994
    5         23.015600000000         0.096660520859
    6         14.376500000000        -0.413083651737
    7          8.982790000000         0.399389101766
    8          5.612920000000         0.391696232452
    9          2.164840000000        -0.502299188974
   10          1.175380000000        -0.418969479911
   11       8913.290000000001         0.000072406595
   12       1338.980000000000         0.000495260761
   13        299.538000000000         0.001839126146
   14         51.148900000000         0.010023961309
   15         23.015600000000        -0.194148000043
   16         14.376500000000         0.891924033630
   17          8.982790000000        -1.006520416442
   18          5.612920000000        -0.742169931259
   19          2.164840000000         1.459217689671
   20          1.175380000000         1.662147154918
   21          0.544870000000        -2.008938599309
   22          0.313216000000         0.183532791123
   23          0.151662000000        -0.315900450065
   24          0.069997000000         0.109738555118
   25          0.027400000000        -0.022697326999
 P 44
    1        113.557000000000        -0.000004166070
    2         20.363900000000         0.000196515801
    3         12.727400000000        -0.001881470585
    4          7.949840000000         0.004292053638
    5          4.964770000000         0.000342457444
    6          2.301300000000        -0.006093518447
    7          1.195450000000        -0.005492560104
    8        113.557000000000        -0.000021858779
    9         20.363900000000         0.001031090483
   10         12.727400000000        -0.009871808818
   11          7.949840000000         0.022519795572
   12          4.964770000000         0.001796825548
   13          2.301300000000        -0.031971825449
   14          1.195450000000        -0.028818682414
   15        113.557000000000         0.000293829765
   16         20.363900000000        -0.013860109558
   17         12.727400000000         0.132698685590
   18          7.949840000000        -0.302715270044
   19          4.964770000000        -0.024153262370
   20          2.301300000000         0.429771209230
   21          1.195450000000         0.387386075578
   22        113.557000000000         0.000007695163
   23         20.363900000000        -0.000328635521
   24         12.727400000000         0.003539022690
   25          7.949840000000        -0.008866447483
   26          4.964770000000         0.000428151911
   27          2.301300000000         0.013587343022
   28          1.195450000000         0.014744568206
   29        113.557000000000         0.000040375429
   30         20.363900000000        -0.001724303882
   31         12.727400000000         0.018568749187
   32          7.949840000000        -0.046520990087
   33          4.964770000000         0.002246452238
   34          2.301300000000         0.071290858177
   35          1.195450000000         0.077362654287
   36        113.557000000000        -0.000542734008
   37         20.363900000000         0.023178412676
   38         12.727400000000        -0.249604571524
   39          7.949840000000         0.625343779529
   40          4.964770000000        -0.030197227757
   41          2.301300000000        -0.958304941803
   42          1.195450000000        -1.039923151577
   43          0.592897000000        -0.017055493460
   44          0.592897000000        -0.089487750732
 S 25
    1       8913.290000000001        -0.000016830175
    2       1338.980000000000        -0.000118527383
    3        299.538000000000        -0.000415741030
    4         51.148900000000        -0.002828542908
    5         23.015600000000         0.053479478239
    6         14.376500000000        -0.228547270049
    7          8.982790000000         0.220970470538
    8          5.612920000000         0.216714227830
    9          2.164840000000        -0.277907653583
   10          1.175380000000        -0.231803729014
   11       8913.290000000001         0.000027322490
   12       1338.980000000000         0.000186885699
   13        299.538000000000         0.000693990728
   14         51.148900000000         0.003782522597
   15         23.015600000000        -0.073261375885
   16         14.376500000000         0.336565825424
   17          8.982790000000        -0.379808550945
   18          5.612920000000        -0.280056401779
   19          2.164840000000         0.550632999762
   20          1.175380000000         0.627208044719
   21          0.544870000000        -1.143094378074
   22          0.313216000000         0.328231439869
   23          0.151662000000        -0.093881258809
   24          0.069997000000         1.931752443436
   25          0.027400000000        -2.057485793647
 S 25
    1       8913.290000000001        -0.000018845903
    2       1338.980000000000        -0.000132723251
    3        299.538000000000        -0.000465533785
    4         51.148900000000        -0.003167313759
    5         23.015600000000         0.059884644771
    6         14.376500000000        -0.255920074971
    7          8.982790000000         0.247435812182
    8          5.612920000000         0.242669804901
    9          2.164840000000        -0.311192286501
   10          1.175380000000        -0.259566555729
   11       8913.290000000001         0.000034244468
   12       1338.980000000000         0.000234231999
   13        299.538000000000         0.000869808853
   14         51.148900000000         0.004740800575
   15         23.015600000000        -0.091821678265
   16         14.376500000000         0.421832630955
   17          8.982790000000        -0.476030625220
   18          5.612920000000        -0.351006905201
   19          2.164840000000         0.690132358767
   20          1.175380000000         0.786107203031
   21          0.544870000000        -0.054436110326
   22          0.313216000000        -4.577985279868
   23          0.151662000000         8.915776704901
   24          0.069997000000        -7.127091254063
   25          0.027400000000         2.286093148056
 S 25
    1       8913.290000000001        -0.000133513753
    2       1338.980000000000        -0.000940277553
    3        299.538000000000        -0.003298072977
    4         51.148900000000        -0.022438826706
    5         23.015600000000         0.424252621838
    6         14.376500000000        -1.813065155559
    7          8.982790000000         1.752958416238
    8          5.612920000000         1.719193649123
    9          2.164840000000        -2.204641005195
   10          1.175380000000        -1.838898639721
   11       8913.290000000001         0.000184364352
   12       1338.980000000000         0.001261051282
   13        299.538000000000         0.004682851068
   14         51.148900000000         0.025523381326
   15         23.015600000000        -0.494346824151
   16         14.376500000000         2.271049989244
   17          8.982790000000        -2.562839540978
   18          5.612920000000        -1.889740550597
   19          2.164840000000         3.715514094787
   20          1.175380000000         4.232220610690
   21          0.544870000000       -14.470440153149
   22          0.313216000000        19.904318116975
   23          0.151662000000       -12.932064160922
   24          0.069997000000         5.349629489510
   25          0.027400000000        -1.123905955104
 P 44
    1        113.557000000000         0.000055697923
    2         20.363900000000        -0.002627301270
    3         12.727400000000         0.025154160844
    4          7.949840000000        -0.057382245791
    5          4.964770000000        -0.004578455648
    6          2.301300000000         0.081466776217
    7          1.195450000000         0.073432314801
    8        113.557000000000         0.000292238326
    9         20.363900000000        -0.013785040505
   10         12.727400000000         0.131979963655
   11          7.949840000000        -0.301075705162
   12          4.964770000000        -0.024022443596
   13          2.301300000000         0.427443484627
   14          1.195450000000         0.385287917117
   15        113.557000000000         0.000022530102
   16         20.363900000000        -0.001062757132
   17         12.727400000000         0.010174989878
   18          7.949840000000        -0.023211419125
   19          4.964770000000        -0.001852009302
   20          2.301300000000         0.032953737894
   21          1.195450000000         0.029703756148
   22        113.557000000000        -0.000102488454
   23         20.363900000000         0.004376950107
   24         12.727400000000        -0.047134666696
   25          7.949840000000         0.118088264323
   26          4.964770000000        -0.005702364571
   27          2.301300000000        -0.180963769008
   28          1.195450000000        -0.196376335735
   29        113.557000000000        -0.000537740951
   30         20.363900000000         0.022965175407
   31         12.727400000000        -0.247308253924
   32          7.949840000000         0.619590728141
   33          4.964770000000        -0.029919418640
   34          2.301300000000        -0.949488707028
   35          1.195450000000        -1.030356043809
   36        113.557000000000        -0.000041457117
   37         20.363900000000         0.001770499255
   38         12.727400000000        -0.019066219680
   39          7.949840000000         0.047767321742
   40          4.964770000000        -0.002306636351
   41          2.301300000000        -0.073200792876
   42          1.195450000000        -0.079435256885
   43          0.592897000000         0.228083898108
   44          0.592897000000         1.196720684449
 P 44
    1        113.557000000000         0.000211484182
    2         20.363900000000        -0.009975823684
    3         12.727400000000         0.095509973061
    4          7.949840000000        -0.217879530295
    5          4.964770000000        -0.017384327720
    6          2.301300000000         0.309328132631
    7          1.195450000000         0.278821402626
    8        113.557000000000        -0.000040307170
    9         20.363900000000         0.001901311090
   10         12.727400000000        -0.018203426277
   11          7.949840000000         0.041526071465
   12          4.964770000000         0.003313311876
   13          2.301300000000        -0.058955433419
   14          1.195450000000        -0.053141098091
   15        113.557000000000         0.000000003115
   16         20.363900000000        -0.000000146934
   17         12.727400000000         0.000001406764
   18          7.949840000000        -0.000003209142
   19          4.964770000000        -0.000000256053
   20          2.301300000000         0.000004556086
   21          1.195450000000         0.000004106754
   22        113.557000000000        -0.000321015621
   23         20.363900000000         0.013709538077
   24         12.727400000000        -0.147635794801
   25          7.949840000000         0.369877544114
   26          4.964770000000        -0.017861017903
   27          2.301300000000        -0.566816989294
   28          1.195450000000        -0.615092424302
   29        113.557000000000         0.000061182974
   30         20.363900000000        -0.002612926773
   31         12.727400000000         0.028138185158
   32          7.949840000000        -0.070495660190
   33          4.964770000000         0.003404165159
   34          2.301300000000         0.108030721257
   35          1.195450000000         0.117231627654
   36        113.557000000000        -0.000000004728
   37         20.363900000000         0.000000201927
   38         12.727400000000        -0.000002174524
   39          7.949840000000         0.000005447917
   40          4.964770000000        -0.000000263074
   41          2.301300000000        -0.000008348633
   42          1.195450000000        -0.000009059681
   43          0.592897000000         0.869113938938
   44          0.592897000000        -0.165646068221
 P 44
    1        113.557000000000         0.000014560063
    2         20.363900000000        -0.000686806098
    3         12.727400000000         0.006575580525
    4          7.949840000000        -0.015000364363
    5          4.964770000000        -0.001196859795
    6          2.301300000000         0.021296331467
    7          1.195450000000         0.019196032899
    8        113.557000000000         0.000076394385
    9         20.363900000000        -0.003603564613
   10         12.727400000000         0.034501046729
   11          7.949840000000        -0.078704575188
   12          4.964770000000        -0.006279736909
   13          2.301300000000         0.111738533855
   14          1.195450000000         0.100718594432
   15        113.557000000000         0.000005889622
   16         20.363900000000        -0.000277816666
   17         12.727400000000         0.002659856781
   18          7.949840000000        -0.006067725992
   19          4.964770000000        -0.000484136059
   20          2.301300000000         0.008614477679
   21          1.195450000000         0.007764895902
   22        113.557000000000        -0.000021341193
   23         20.363900000000         0.000911413289
   24         12.727400000000        -0.009814862070
   25          7.949840000000         0.024589545395
   26          4.964770000000        -0.001187404636
   27          2.301300000000        -0.037682125640
   28          1.195450000000        -0.040891487818
   29        113.557000000000        -0.000111973917
   30         20.363900000000         0.004782043554
   31         12.727400000000        -0.051497052408
   32          7.949840000000         0.129017514346
   33          4.964770000000        -0.006230127160
   34          2.301300000000        -0.197712243449
   35          1.195450000000        -0.214551266871
   36        113.557000000000        -0.000008632625
   37         20.363900000000         0.000368671451
   38         12.727400000000        -0.003970163141
   39          7.949840000000         0.009946599971
   40          4.964770000000        -0.000480311398
   41          2.301300000000        -0.015242617290
   42          1.195450000000        -0.016540821109
   43          0.592897000000         0.065489468998
   44          0.592897000000         0.343613042467
 P 44
    1        113.557000000000         0.000027995969
    2         20.363900000000        -0.001320585034
    3         12.727400000000         0.012643471355
    4          7.949840000000        -0.028842575406
    5          4.964770000000        -0.002301312025
    6          2.301300000000         0.040948408409
    7          1.195450000000         0.036909971851
    8        113.557000000000         0.000146890486
    9         20.363900000000        -0.006928903962
   10         12.727400000000         0.066338324710
   11          7.949840000000        -0.151332500314
   12          4.964770000000        -0.012074625719
   13          2.301300000000         0.214849920344
   14          1.195450000000         0.193660872792
   15        113.557000000000         0.000011324516
   16         20.363900000000        -0.000534183566
   17         12.727400000000         0.005114350419
   18          7.949840000000        -0.011666972897
   19          4.964770000000        -0.000930892774
   20          2.301300000000         0.016563845786
   21          1.195450000000         0.014930277035
   22        113.557000000000        -0.000042281220
   23         20.363900000000         0.001805694025
   24         12.727400000000        -0.019445226455
   25          7.949840000000         0.048716861758
   26          4.964770000000        -0.002352488692
   27          2.301300000000        -0.074655910716
   28          1.195450000000        -0.081014306167
   29        113.557000000000        -0.000221842973
   30         20.363900000000         0.009474195273
   31         12.727400000000        -0.102026074204
   32          7.949840000000         0.255609784963
   33          4.964770000000        -0.012343141718
   34          2.301300000000        -0.391707934295
   35          1.195450000000        -0.425069444767
   36        113.557000000000        -0.000017102975
   37         20.363900000000         0.000730412695
   38         12.727400000000        -0.007865696001
   39          7.949840000000         0.019706225875
   40          4.964770000000        -0.000951594004
   41          2.301300000000        -0.030198707109
   42          1.195450000000        -0.032770711388
   43          0.592897000000         0.090557691075
   44          0.592897000000         0.475142098796
 P 44
    1        113.557000000000         0.000138370927
    2         20.363900000000        -0.006527031726
    3         12.727400000000         0.062490742027
    4          7.949840000000        -0.142555306889
    5          4.964770000000        -0.011374304736
    6          2.301300000000         0.202388755000
    7          1.195450000000         0.182428659382
    8        113.557000000000         0.000726010697
    9         20.363900000000        -0.034246318737
   10         12.727400000000         0.327879189089
   11          7.949840000000        -0.747965489074
   12          4.964770000000        -0.059679205146
   13          2.301300000000         1.061902270920
   14          1.195450000000         0.957174758440
   15        113.557000000000         0.000055971765
   16         20.363900000000        -0.002640218537
   17         12.727400000000         0.025277832624
   18          7.949840000000        -0.057664368677
   19          4.964770000000        -0.004600965871
   20          2.301300000000         0.081867311986
   21          1.195450000000         0.073793348711
   22        113.557000000000        -0.000183008940
   23         20.363900000000         0.007815719429
   24         12.727400000000        -0.084166216488
   25          7.949840000000         0.210864807507
   26          4.964770000000        -0.010182451360
   27          2.301300000000        -0.323138717777
   28          1.195450000000        -0.350660232592
   29        113.557000000000        -0.000960219399
   30         20.363900000000         0.041007862369
   31         12.727400000000        -0.441607027145
   32          7.949840000000         1.106374798087
   33          4.964770000000        -0.053425736141
   34          2.301300000000        -1.695458516101
   35          1.195450000000        -1.839859617246
   36        113.557000000000        -0.000074028075
   37         20.363900000000         0.003161499466
   38         12.727400000000        -0.034045675630
   39          7.949840000000         0.085295919643
   40          4.964770000000        -0.004118854935
   41          2.301300000000        -0.130711304702
   42          1.195450000000        -0.141843901667
   43          0.592897000000         0.788229619512
   44          0.592897000000         4.135718029201
 P 44
    1        113.557000000000        -0.001448505533
    2         20.363900000000         0.068326792380
    3         12.727400000000        -0.654170553360
    4          7.949840000000         1.492308795939
    5          4.964770000000         0.119069401028
    6          2.301300000000        -2.118662053890
    7          1.195450000000        -1.909714194218
    8        113.557000000000        -0.007600082581
    9         20.363900000000         0.358500021476
   10         12.727400000000        -3.432330850894
   11          7.949840000000         7.829911470413
   12          4.964770000000         0.624738573826
   13          2.301300000000       -11.116289311451
   14          1.195450000000       -10.019972485053
   15        113.557000000000        -0.000585928066
   16         20.363900000000         0.027638544973
   17         12.727400000000        -0.264615411166
   18          7.949840000000         0.603646715058
   19          4.964770000000         0.048164195634
   20          2.301300000000        -0.857009884702
   21          1.195450000000        -0.772489382342
   22        113.557000000000         0.001026590079
   23         20.363900000000        -0.043842339300
   24         12.727400000000         0.472131050072
   25          7.949840000000        -1.182847787934
   26          4.964770000000         0.057118540591
   27          2.301300000000         1.812649166243
   28          1.195450000000         1.967031318982
   29        113.557000000000         0.005386358011
   30         20.363900000000        -0.230033915439
   31         12.727400000000         2.477197973072
   32          7.949840000000        -6.206217833532
   33          4.964770000000         0.299692072687
   34          2.301300000000         9.510687424221
   35          1.195450000000        10.320706497920
   36        113.557000000000         0.000415261058
   37         20.363900000000        -0.017734455611
   38         12.727400000000         0.190979479735
   39          7.949840000000        -0.478468118356
   40          4.964770000000         0.023104748488
   41          2.301300000000         0.733226070725
   42          1.195450000000         0.795674459167
   43          0.592897000000         0.128499280827
   44          0.592897000000         0.674215682202
 end
  // -----------------------------------------------
  // The basis set
  // -----------------------------------------------
  BAS[ATNO] = new BFNGauss[NSH];
  // Basis function   1 L = s
  InitBFNGauss(BAS[ATNO][  0]);
  BAS[ATNO][  0].l  = 0;
  BAS[ATNO][  0].ng = 25;
  BAS[ATNO][  0].a[  0] =      8913.290000000001;     BAS[ATNO][  0].d[  0] =         0.000041778605;
  BAS[ATNO][  0].a[  1] =      1338.980000000000;     BAS[ATNO][  0].d[  1] =         0.000294227999;
  BAS[ATNO][  0].a[  2] =       299.538000000000;     BAS[ATNO][  0].d[  2] =         0.001032020182;
  BAS[ATNO][  0].a[  3] =        51.148900000000;     BAS[ATNO][  0].d[  3] =         0.007021470473;
  BAS[ATNO][  0].a[  4] =        23.015600000000;     BAS[ATNO][  0].d[  4] =        -0.132755482107;
  BAS[ATNO][  0].a[  5] =        14.376500000000;     BAS[ATNO][  0].d[  5] =         0.567337304306;
  BAS[ATNO][  0].a[  6] =         8.982790000000;     BAS[ATNO][  0].d[  6] =        -0.548528936966;
  BAS[ATNO][  0].a[  7] =         5.612920000000;     BAS[ATNO][  0].d[  7] =        -0.537963397224;
  BAS[ATNO][  0].a[  8] =         2.164840000000;     BAS[ATNO][  0].d[  8] =         0.689867697813;
  BAS[ATNO][  0].a[  9] =         1.175380000000;     BAS[ATNO][  0].d[  9] =         0.575421017801;
  BAS[ATNO][  0].a[ 10] =      8913.290000000001;     BAS[ATNO][  0].d[ 10] =         0.000009784254;
  BAS[ATNO][  0].a[ 11] =      1338.980000000000;     BAS[ATNO][  0].d[ 11] =         0.000066924251;
  BAS[ATNO][  0].a[ 12] =       299.538000000000;     BAS[ATNO][  0].d[ 12] =         0.000248519871;
  BAS[ATNO][  0].a[ 13] =        51.148900000000;     BAS[ATNO][  0].d[ 13] =         0.001354531106;
  BAS[ATNO][  0].a[ 14] =        23.015600000000;     BAS[ATNO][  0].d[ 14] =        -0.026235087821;
  BAS[ATNO][  0].a[ 15] =        14.376500000000;     BAS[ATNO][  0].d[ 15] =         0.120525090893;
  BAS[ATNO][  0].a[ 16] =         8.982790000000;     BAS[ATNO][  0].d[ 16] =        -0.136010422528;
  BAS[ATNO][  0].a[ 17] =         5.612920000000;     BAS[ATNO][  0].d[ 17] =        -0.100288920413;
  BAS[ATNO][  0].a[ 18] =         2.164840000000;     BAS[ATNO][  0].d[ 18] =         0.197183098614;
  BAS[ATNO][  0].a[ 19] =         1.175380000000;     BAS[ATNO][  0].d[ 19] =         0.224604819884;
  BAS[ATNO][  0].a[ 20] =         0.544870000000;     BAS[ATNO][  0].d[ 20] =        -0.334390451977;
  BAS[ATNO][  0].a[ 21] =         0.313216000000;     BAS[ATNO][  0].d[ 21] =         0.289505351059;
  BAS[ATNO][  0].a[ 22] =         0.151662000000;     BAS[ATNO][  0].d[ 22] =        -0.135419083413;
  BAS[ATNO][  0].a[ 23] =         0.069997000000;     BAS[ATNO][  0].d[ 23] =         0.049913194249;
  BAS[ATNO][  0].a[ 24] =         0.027400000000;     BAS[ATNO][  0].d[ 24] =        -0.010525750116;

FINAL SINGLE POINT ENERGY      -211.769164610253

DIPOLE MOMENT
-------------
                                X             Y             Z
Electronic contribution:     -0.00000       0.00000      -0.00000
Nuclear contribution   :      0.00000       0.00000       0.00000
                        -----------------------------------------
Total Dipole Moment    :     -0.00000       0.00000      -0.00000
                        -----------------------------------------
Magnitude (a.u.)       :      0.00000
Magnitude (Debye)      :      0.00000

Rotational constants in cm-1:     0.000000     0.000000     0.000000
Rotational constants in MHz :     0.000000     0.000000     0.000000

                             ****ORCA TERMINATED NORMALLY****
TOTAL RUN TIME: 0 days 0 hours 0 minutes 0 seconds 906 msec
