                         Program Version 4.2.0 -  RELEASE  -
|  1> #
|  2> # 84_Po CCSD(T)/aug-cc-pVQZ-PP
|  3> #
|  4> ! CCSD(T) aug-cc-pVQZ-PP tightscf slowconv
|  5>
|  6> *xyz 0 3
|  7>  Po 0.0 0.0 0.0
|  8> *
|  9>
| 10> %maxcore 5000
| 11>
| 12> %pal
| 13> nprocs 24
| 14> end
| 15>
| 16>
| 17>                          ****END OF INPUT****

CARTESIAN COORDINATES (ANGSTROEM)
---------------------------------
  Po     0.000000    0.000000    0.000000

 Total Charge           Charge          ....    0
 Multiplicity           Mult            ....    3
 Number of Electrons    NEL             ....   24
 Basis Dimension        Dim             ....   92

ORBITAL ENERGIES
----------------
                 SPIN UP ORBITALS
  NO   OCC          E(Eh)            E(eV)
   0   1.0000      -7.246206      -197.1793
   1   1.0000      -4.687872      -127.5635
   2   1.0000      -4.687872      -127.5635
   3   1.0000      -4.669364      -127.0599
   4   1.0000      -1.581069       -43.0231
   5   1.0000      -1.581069       -43.0231
   6   1.0000      -1.564050       -42.5600
   7   1.0000      -1.564050       -42.5600
   8   1.0000      -1.558710       -42.4147
   9   1.0000      -0.882823       -24.0228
  10   1.0000      -0.376965       -10.2577
  11   1.0000      -0.376965       -10.2577
  12   1.0000      -0.326415        -8.8822
  13   0.0000       0.041662         1.1337
  14   0.0000       0.048480         1.3192
  15   0.0000       0.048480         1.3192
  16   0.0000       0.052970         1.4414
  17   0.0000       0.119259         3.2452

                 SPIN DOWN ORBITALS
  NO   OCC          E(Eh)            E(eV)
   0   1.0000      -7.234963      -196.8734
   1   1.0000      -4.674522      -127.2002
   2   1.0000      -4.674522      -127.2002
   3   1.0000      -4.669946      -127.0757
   4   1.0000      -1.564043       -42.5598
   5   1.0000      -1.564043       -42.5598
   6   1.0000      -1.555331       -42.3227
   7   1.0000      -1.555331       -42.3227
   8   1.0000      -1.552776       -42.2532
   9   1.0000      -0.733329       -19.9549
  10   1.0000      -0.292744        -7.9660
  11   0.0000      -0.010095        -0.2747
  12   0.0000      -0.010095        -0.2747
  13   0.0000       0.048097         1.3088
  14   0.0000       0.053702         1.4613
  15   0.0000       0.059691         1.6243

E(0)                                       ...   -236.726879508
E(0)                                       ...   -236.726879508
E(CORR)                                    ...     -0.253458101
E(TOT)                                     ...   -236.980337609
E(CCSD(T))                                 ...   -236.988400650

MULLIKEN ATOMIC CHARGES AND SPIN DENSITIES
------------------------------------------
   0 Po:   -0.000000    2.000000
Sum of atomic charges       :   -0.0000000

LOEWDIN ATOMIC CHARGES AND SPIN DENSITIES
-----------------------------------------
   0 Po:   -0.000000    2.000000

FINAL SINGLE POINT ENERGY      -236.988400650198

DIPOLE MOMENT
-------------
                                X             Y             Z
Electronic contribution:     -0.00000      -0.00000      -0.00000
Nuclear contribution   :      0.00000       0.00000       0.00000
                        -----------------------------------------
Total Dipole Moment    :     -0.00000      -0.00000      -0.00000
                        -----------------------------------------
Magnitude (a.u.)       :      0.00000
Magnitude (Debye)      :      0.00000

Rotational constants in cm-1:     0.000000     0.000000     0.000000
Rotational constants in MHz :     0.000000     0.000000     0.000000

                             ****ORCA TERMINATED NORMALLY****
TOTAL RUN TIME: 0 days 0 hours 0 minutes 23 seconds 68 msec
