                         Program Version 4.2.0 -  RELEASE  -
|  1> # input to generate an atomic fitting density for At
|  2> # this file is use internally by ORCA
|  3> #
|  4> # atomic ground state (S=2): 1s2 2s2 2p6 3s2 3p6 4s2 3d10 4p6 5s2 4d10 5p6 6s2 4f14 5d10 6p5
|  5> #
|  6> ! RHF AllowRHF def2-SVP def2/J  NoMulliken NoLoewdin NoMayer NoPrintMOs
|  7>
|  8> %output print[p_atomdensfit] 2 end
|  9>
| 10> %scf
| 11>   guess hcore
| 12>   maxiter 1000
| 13>   maxdisk 500000
| 14>   SCFMode Conventional
| 15>   lshift 1.000000
| 16>   hftyp rohf
| 17>   rohf_case sahf
| 18>   rohf_numop   2
| 19>   rohf_norb[1] 3
| 20>   rohf_nel[1]  5
| 21> end
| 22>
| 23> %basis
| 24>   NewECP 85
| 25>     N_core 60
| 26>     lmax h
| 27>     s 3
| 28>       1      30.2008320000     49.9571580000  2
| 29>       2      13.6123060000    283.2103710000  2
| 30>       3       8.5293400000     62.2810520000  2
| 31>     p 4
| 32>       1      10.8540650000     71.9823710000  2
| 33>       2       9.4682290000    143.9035320000  2
| 34>       3       7.0311140000      4.8717590000  2
| 35>       4       6.1438580000      8.9830590000  2
| 36>     d 4
| 37>       1       8.3135150000     36.3632370000  2
| 38>       2       7.9989650000     54.5489700000  2
| 39>       3       5.1799660000      9.7762850000  2
| 40>       4       4.9422260000     14.2647550000  2
| 41>     f 4
| 42>       1       5.8121630000     19.8701980000  2
| 43>       2       5.7537150000     26.4164520000  2
| 44>       3       2.5134720000      0.9949700000  2
| 45>       4       2.5362610000      1.4907010000  2
| 46>     g 4
| 47>       1       9.8957780000    -22.2232030000  2
| 48>       2       9.7373340000    -26.7154760000  2
| 49>       3       3.0133310000     -0.3730440000  2
| 50>       4       3.0977630000     -0.4859460000  2
| 51>     h 1
| 52>       1       1.0000000000      0.0000000000  2
| 53>   end
| 54>   NewGTO 85
| 55>     s 10
| 56>      1    9090.2800000000      0.0000376151
| 57>      2    1373.0700000000      0.0002600813
| 58>      3     307.9500000000      0.0008758937
| 59>      4      48.0176000000      0.0090974727
| 60>      5      23.9099000000     -0.1583411623
| 61>      6      14.9334000000      0.6796666475
| 62>      7       9.3317100000     -0.6624615158
| 63>      8       5.8320600000     -0.6655266064
| 64>      9       2.2878700000      0.8437854842
| 65>     10       1.2498300000      0.7051438698
| 66>     s 10
| 67>      1    9090.2800000000      0.0000220413
| 68>      2    1373.0700000000      0.0001473286
| 69>      3     307.9500000000      0.0005289908
| 70>      4      48.0176000000      0.0042632485
| 71>      5      23.9099000000     -0.0791235714
| 72>      6      14.9334000000      0.3682042995
| 73>      7       9.3317100000     -0.4219734332
| 74>      8       5.8320600000     -0.3161613463
| 75>      9       2.2878700000      0.6199772532
| 76>     10       1.2498300000      0.7110042783
| 77>     s 1
| 78>      1       0.5753680000      1.0000000000
| 79>     s 1
| 80>      1       0.3314590000      1.0000000000
| 81>     s 1
| 82>      1       0.1633670000      1.0000000000
| 83>     s 1
| 84>      1       0.0762100000      1.0000000000
| 85>     s 1
| 86>      1       0.0297000000      1.0000000000
| 87>     p 7
| 88>      1     124.6020000000      0.0005140380
| 89>      2      20.8899000000     -0.0177101479
| 90>      3      13.0585000000      0.1880368689
| 91>      4       8.1606100000     -0.4490967942
| 92>      5       5.0980800000     -0.0180209871
| 93>      6       2.3787600000      0.6460315736
| 94>      7       1.2375500000      0.5502810067
| 95>     p 7
| 96>      1     124.6020000000     -0.0003724495
| 97>      2      20.8899000000      0.0107371860
| 98>      3      13.0585000000     -0.1348458611
| 99>      4       8.1606100000      0.3574472012
|100>      5       5.0980800000     -0.0320732197
|101>      6       2.3787600000     -0.5664743545
|102>      7       1.2375500000     -0.5725463450
|103>     p 1
|104>      1       0.6083250000      1.0000000000
|105>     p 1
|106>      1       0.2897820000      1.0000000000
|107>     p 1
|108>      1       0.1300040000      1.0000000000
|109>     p 1
|110>      1       0.0560960000      1.0000000000
|111>     p 1
|112>      1       0.0229000000      1.0000000000
|113>   end
|114>   NewAuxGTO 85
|115>     S 1
|116>      1 1310.72 1.0
|117>     S 1
|118>      1  655.36 1.0
|119>     S 1
|120>      1  327.68 1.0
|121>     S 1
|122>      1  163.84 1.0
|123>     S 1
|124>      1   81.82 1.0
|125>     S 1
|126>      1   40.96 1.0
|127>     S 1
|128>      1   20.48 1.0
|129>     S 1
|130>      1   10.24 1.0
|131>     S 1
|132>      1    5.12 1.0
|133>     S 1
|134>      1    2.56 1.0
|135>     S 1
|136>      1    1.28 1.0
|137>     S 1
|138>      1    0.64 1.0
|139>     S 1
|140>      1    0.32 1.0
|141>     S 1
|142>      1    0.16 1.0
|143>     S 1
|144>      1    0.08 1.0
|145>     S 1
|146>      1    0.04 1.0
|147>     S 1
|148>      1    0.02 1.0
|149>     S 1
|150>      1    0.01 1.0
|151>   end
|152> end
|153>
|154> * xyz 0 2
|155> 85  0.0 0.0 0.0
|156> *
|157>
|158>
|159>                          ****END OF INPUT****

CARTESIAN COORDINATES (ANGSTROEM)
---------------------------------
  At     0.000000    0.000000    0.000000

 Total Charge           Charge          ....    0
 Multiplicity           Mult            ....    2
 Number of Electrons    NEL             ....   25
 Basis Dimension        Dim             ....   28

ORBITAL ENERGIES
----------------

  NO   OCC          E(Eh)            E(eV)
   0   2.0000     -11.738980      -319.4339
   1   2.0000      -8.677082      -236.1154
   2   2.0000      -8.677082      -236.1154
   3   2.0000      -8.673891      -236.0286
   4   2.0000      -3.265408       -88.8563
   5   2.0000      -2.184831       -59.4523
   6   2.0000      -2.184831       -59.4523
   7   2.0000      -2.179746       -59.3139
   8   2.0000      -0.726659       -19.7734
   9   2.0000      -0.397847       -10.8260
  10   1.6667      -0.401501       -10.9254
  11   1.6667      -0.401501       -10.9254
  12   1.6667      -0.099564        -2.7093
  13   0.0000       0.015645         0.4257
  14   0.0000       0.015645         0.4257
  15   0.0000       0.017869         0.4862
  16   0.0000       0.243321         6.6211
  17   0.0000       0.243321         6.6211

CleanUpVectors: The p-vectors have cracked symmetry
CleanUpVectors: The p-vectors have cracked symmetry
CleanUpVectors: The p-vectors have cracked symmetry
CleanUpVectors: The p-vectors have cracked symmetry
CleanUpVectors: The p-vectors have cracked symmetry
CleanUpVectors: The p-vectors have cracked symmetry
CleanUpVectors: The p-vectors have cracked symmetry
CleanUpVectors: The p-vectors have cracked symmetry
CleanUpVectors: The p-vectors have cracked symmetry
CleanUpVectors: The p-vectors have cracked symmetry
CleanUpVectors: The p-vectors have cracked symmetry
CleanUpVectors: The p-vectors have cracked symmetry
CleanUpVectors: The p-vectors have cracked symmetry
CleanUpVectors: The p-vectors have cracked symmetry
CleanUpVectors: The p-vectors have cracked symmetry
CleanUpVectors: The p-vectors have cracked symmetry
CleanUpVectors: The p-vectors have cracked symmetry
CleanUpVectors: The p-vectors have cracked symmetry
CleanUpVectors: The p-vectors have cracked symmetry
CleanUpVectors: The p-vectors have cracked symmetry
--------------------------
ATOM BASIS FOR ELEMENT At
--------------------------
 NewGTO At
 S 25
    1       9090.280000000001         0.000031296931
    2       1373.070000000000         0.000216395713
    3        307.950000000000         0.000728770742
    4         48.017600000000         0.007569379634
    5         23.909900000000        -0.131744761284
    6         14.933400000000         0.565503744742
    7          9.331710000000        -0.551188541192
    8          5.832060000000        -0.553738791698
    9          2.287870000000         0.702055710441
   10          1.249830000000         0.586701584402
   11       9090.280000000001         0.000006920600
   12       1373.070000000000         0.000046258721
   13        307.950000000000         0.000166094280
   14         48.017600000000         0.001338588860
   15         23.909900000000        -0.024843480556
   16         14.933400000000         0.115610003359
   17          9.331710000000        -0.132492613736
   18          5.832060000000        -0.099269384843
   19          2.287870000000         0.194662507804
   20          1.249830000000         0.223243474110
   21          0.575368000000        -0.349420077570
   22          0.331459000000         0.309935955059
   23          0.163367000000        -0.148509380452
   24          0.076210000000         0.053922132416
   25          0.029700000000        -0.011053791710
 P 44
    1        124.602000000000        -0.000383755899
    2         20.889900000000         0.013221539529
    3         13.058500000000        -0.140379228287
    4          8.160610000000         0.335273937313
    5          5.098080000000         0.013453597036
    6          2.378760000000        -0.482295915060
    7          1.237550000000        -0.410813174637
    8        124.602000000000         0.000027281126
    9         20.889900000000        -0.000939916473
   10         13.058500000000         0.009979529907
   11          8.160610000000        -0.023834553910
   12          5.098080000000        -0.000956413393
   13          2.378760000000         0.034286315484
   14          1.237550000000         0.029204622454
   15        124.602000000000        -0.000051979079
   16         20.889900000000         0.001790834867
   17         13.058500000000        -0.019014125862
   18          8.160610000000         0.045412280150
   19          5.098080000000         0.001822266659
   20          2.378760000000        -0.065326155040
   21          1.237550000000        -0.055643940371
   22        124.602000000000        -0.000117022882
   23         20.889900000000         0.003373602197
   24         13.058500000000        -0.042368297737
   25          8.160610000000         0.112309190080
   26          5.098080000000        -0.010077340977
   27          2.378760000000        -0.177985100294
   28          1.237550000000        -0.179892907469
   29        124.602000000000         0.000008319132
   30         20.889900000000        -0.000239828673
   31         13.058500000000         0.003011953403
   32          8.160610000000        -0.007984036776
   33          5.098080000000         0.000716396057
   34          2.378760000000         0.012652923464
   35          1.237550000000         0.012788549076
   36        124.602000000000        -0.000015850549
   37         20.889900000000         0.000456948635
   38         13.058500000000        -0.005738713309
   39          8.160610000000         0.015212087299
   40          5.098080000000        -0.001364958563
   41          2.378760000000        -0.024107776769
   42          1.237550000000        -0.024366185980
   43          0.608325000000         0.148824280780
   44          0.608325000000        -0.010579886918
 S 25
    1       9090.280000000001        -0.000022289613
    2       1373.070000000000        -0.000154116604
    3        307.950000000000        -0.000519029099
    4         48.017600000000        -0.005390897386
    5         23.909900000000         0.093828361577
    6         14.933400000000        -0.402750662098
    7          9.331710000000         0.392555402100
    8          5.832060000000         0.394371685528
    9          2.287870000000        -0.500002705268
   10          1.249830000000        -0.417847722087
   11       9090.280000000001         0.000053046438
   12       1373.070000000000         0.000354573346
   13        307.950000000000         0.001273113558
   14         48.017600000000         0.010260290853
   15         23.909900000000        -0.190425412899
   16         14.933400000000         0.886151301349
   17          9.331710000000        -1.015556601247
   18          5.832060000000        -0.760900371996
   19          2.287870000000         1.492089175699
   20          1.249830000000         1.711162437092
   21          0.575368000000        -2.207366789649
   22          0.331459000000         0.376065633265
   23          0.163367000000        -0.379398456658
   24          0.076210000000         0.132794887403
   25          0.029700000000        -0.027047996960
 P 44
    1        124.602000000000         0.000299894833
    2         20.889900000000        -0.010332274748
    3         13.058500000000         0.109702561674
    4          8.160610000000        -0.262007493805
    5          5.098080000000        -0.010513621400
    6          2.378760000000         0.376901184119
    7          1.237550000000         0.321039360147
    8        124.602000000000         0.000141026820
    9         20.889900000000        -0.004858796106
   10         13.058500000000         0.051588095795
   11          8.160610000000        -0.123210137331
   12          5.098080000000        -0.004944075140
   13          2.378760000000         0.177239383428
   14          1.237550000000         0.150970123327
   15        124.602000000000         0.000051318556
   16         20.889900000000        -0.001768077896
   17         13.058500000000         0.018772504522
   18          8.160610000000        -0.044835205186
   19          5.098080000000        -0.001799110269
   20          2.378760000000         0.064496025207
   21          1.237550000000         0.054936846943
   22        124.602000000000        -0.000580745921
   23         20.889900000000         0.016742073670
   24         13.058500000000        -0.210259870751
   25          8.160610000000         0.557353423467
   26          5.098080000000        -0.050010515515
   27          2.378760000000        -0.883281278262
   28          1.237550000000        -0.892749095274
   29        124.602000000000        -0.000273098237
   30         20.889900000000         0.007873031287
   31         13.058500000000        -0.098875597695
   32          8.160610000000         0.262097815792
   33          5.098080000000        -0.023517657435
   34          2.378760000000        -0.415366774501
   35          1.237550000000        -0.419819055683
   36        124.602000000000        -0.000099378312
   37         20.889900000000         0.002864934500
   38         13.058500000000        -0.035980056565
   39          8.160610000000         0.095375344955
   40          5.098080000000        -0.008557891578
   41          2.378760000000        -0.151148720111
   42          1.237550000000        -0.152768870406
   43          0.608325000000         1.193353769261
   44          0.608325000000         0.561179681009
 S 25
    1       9090.280000000001        -0.000013171753
    2       1373.070000000000        -0.000091073180
    3        307.950000000000        -0.000306713417
    4         48.017600000000        -0.003185679883
    5         23.909900000000         0.055446635792
    6         14.933400000000        -0.238000204853
    7          9.331710000000         0.231975450094
    8          5.832060000000         0.233048758890
    9          2.287870000000        -0.295470020238
   10          1.249830000000        -0.246921613825
   11       9090.280000000001         0.000020926061
   12       1373.070000000000         0.000139874115
   13        307.950000000000         0.000502225095
   14         48.017600000000         0.004047538031
   15         23.909900000000        -0.075120102524
   16         14.933400000000         0.349574017434
   17          9.331710000000        -0.400622557897
   18          5.832060000000        -0.300164316749
   19          2.287870000000         0.588607844649
   20          1.249830000000         0.675029113772
   21          0.575368000000        -1.320355764525
   22          0.331459000000         0.480681166134
   23          0.163367000000        -0.034590791607
   24          0.076210000000         1.800306346670
   25          0.029700000000        -2.006208841402
 S 25
    1       9090.280000000001        -0.000014517457
    2       1373.070000000000        -0.000100377752
    3        307.950000000000        -0.000338049065
    4         48.017600000000        -0.003511147690
    5         23.909900000000         0.061111390441
    6         14.933400000000        -0.262315706553
    7          9.331710000000         0.255675427389
    8          5.832060000000         0.256858391728
    9          2.287870000000        -0.325656976521
   10          1.249830000000        -0.272148579173
   11       9090.280000000001         0.000025436504
   12       1373.070000000000         0.000170022846
   13        307.950000000000         0.000610475641
   14         48.017600000000         0.004919952029
   15         23.909900000000        -0.091311631407
   16         14.933400000000         0.424921861885
   17          9.331710000000        -0.486973501246
   18          5.832060000000        -0.364862300924
   19          2.287870000000         0.715477492016
   20          1.249830000000         0.820526164832
   21          0.575368000000        -0.285136490451
   22          0.331459000000        -4.334114700988
   23          0.163367000000         8.961288847211
   24          0.076210000000        -7.256259947753
   25          0.029700000000         2.330414013645
 S 25
    1       9090.280000000001        -0.000094780150
    2       1373.070000000000        -0.000655336408
    3        307.950000000000        -0.002207021540
    4         48.017600000000        -0.022923236239
    5         23.909900000000         0.398978044725
    6         14.933400000000        -1.712581025335
    7          9.331710000000         1.669228622806
    8          5.832060000000         1.676951844215
    9          2.287870000000        -2.126117288541
   10          1.249830000000        -1.776776918498
   11       9090.280000000001         0.000128644397
   12       1373.070000000000         0.000859885712
   13        307.950000000000         0.003087463200
   14         48.017600000000         0.024882517535
   15         23.909900000000        -0.461805980290
   16         14.933400000000         2.149030238004
   17          9.331710000000        -2.462854640244
   18          5.832060000000        -1.845280715650
   19          2.287870000000         3.618507078301
   20          1.249830000000         4.149787755037
   21          0.575368000000       -14.758227177703
   22          0.331459000000        20.898473598029
   23          0.163367000000       -13.940069284261
   24          0.076210000000         5.733433186517
   25          0.029700000000        -1.174506501898
 P 44
    1        124.602000000000        -0.000046806644
    2         20.889900000000         0.001612629021
    3         13.058500000000        -0.017122031590
    4          8.160610000000         0.040893307479
    5          5.098080000000         0.001640933037
    6          2.378760000000        -0.058825554138
    7          1.237550000000        -0.050106815941
    8        124.602000000000        -0.000022011023
    9         20.889900000000         0.000758345648
   10         13.058500000000        -0.008051708096
   11          8.160610000000         0.019230251571
   12          5.098080000000         0.000771655732
   13          2.378760000000        -0.027662966745
   14          1.237550000000        -0.023562943068
   15        124.602000000000         0.000334015932
   16         20.889900000000        -0.011507848744
   17         13.058500000000         0.122184176993
   18          8.160610000000        -0.291817889282
   19          5.098080000000        -0.011709828452
   20          2.378760000000         0.419783825340
   21          1.237550000000         0.357566217263
   22        124.602000000000         0.000090422623
   23         20.889900000000        -0.002606754794
   24         13.058500000000         0.032737636743
   25          8.160610000000        -0.086780391568
   26          5.098080000000         0.007786678858
   27          2.378760000000         0.137527629624
   28          1.237550000000         0.139001776607
   29        124.602000000000         0.000042521623
   30         20.889900000000        -0.001225837516
   31         13.058500000000         0.015395012759
   32          8.160610000000        -0.040808847809
   33          5.098080000000         0.003661718814
   34          2.378760000000         0.064672952097
   35          1.237550000000         0.065366175979
   36        124.602000000000        -0.000645263016
   37         20.889900000000         0.018602009200
   38         13.058500000000        -0.233618375311
   39          8.160610000000         0.619271764982
   40          5.098080000000        -0.055566358628
   41          2.378760000000        -0.981408085308
   42          1.237550000000        -0.991927715232
   43          0.608325000000        -0.186217921382
   44          0.608325000000        -0.087569768650
 P 44
    1        124.602000000000        -0.000111561478
    2         20.889900000000         0.003843626897
    3         13.058500000000        -0.040809572628
    4          8.160610000000         0.097467312378
    5          5.098080000000         0.003911088215
    6          2.378760000000        -0.140207995255
    7          1.237550000000        -0.119427284872
    8        124.602000000000         0.000237235579
    9         20.889900000000        -0.008173475867
   10         13.058500000000         0.086781590914
   11          8.160610000000        -0.207264322699
   12          5.098080000000        -0.008316932416
   13          2.378760000000         0.298152421201
   14          1.237550000000         0.253962222890
   15         20.889900000000         0.000000002123
   16         13.058500000000        -0.000000022536
   17          8.160610000000         0.000000053825
   18          2.378760000000        -0.000000077428
   19          1.237550000000        -0.000000065952
   20        124.602000000000         0.000173867867
   21         20.889900000000        -0.005012361764
   22         13.058500000000         0.062949103997
   23          8.160610000000        -0.166864454409
   24          5.098080000000         0.014972505837
   25          2.378760000000         0.264443066788
   26          1.237550000000         0.267277609564
   27        124.602000000000        -0.000369730168
   28         20.889900000000         0.010658791555
   29         13.058500000000        -0.133861323207
   30          8.160610000000         0.354837404270
   31          5.098080000000        -0.031839046401
   32          2.378760000000        -0.562338406515
   33          1.237550000000        -0.568366064140
   34         20.889900000000        -0.000000002768
   35         13.058500000000         0.000000034763
   36          8.160610000000        -0.000000092148
   37          2.378760000000         0.000000146035
   38          1.237550000000         0.000000147600
   39          0.608325000000        -0.447183264813
   40          0.608325000000         0.950935593093
   41          0.608325000000        -0.000000246950
   42          0.289782000000         0.011856107816
   43          0.289782000000        -0.025212023359
   44          0.130004000000         0.336961696333
 P 44
    1        124.602000000000        -0.000013091225
    2         20.889900000000         0.000451031886
    3         13.058500000000        -0.004788815093
    4          8.160610000000         0.011437339489
    5          5.098080000000         0.000458948160
    6          2.378760000000        -0.016452761461
    7          1.237550000000        -0.014014240960
    8        124.602000000000        -0.000006156204
    9         20.889900000000         0.000212099660
   10         13.058500000000        -0.002251960642
   11          8.160610000000         0.005378457485
   12          5.098080000000         0.000215822322
   13          2.378760000000        -0.007736980974
   14          1.237550000000        -0.006590256349
   15        124.602000000000         0.000093420020
   16         20.889900000000        -0.003218599350
   17         13.058500000000         0.034173364753
   18          8.160610000000        -0.081617762769
   19          5.098080000000        -0.003275090513
   20          2.378760000000         0.117408212208
   21          1.237550000000         0.100006736279
   22        124.602000000000         0.000019714418
   23         20.889900000000        -0.000568338466
   24         13.058500000000         0.007137632699
   25          8.160610000000        -0.018920319916
   26          5.098080000000         0.001697692905
   27          2.378760000000         0.029984501139
   28          1.237550000000         0.030305902461
   29        124.602000000000         0.000009270789
   30         20.889900000000        -0.000267263578
   31         13.058500000000         0.003356502100
   32          8.160610000000        -0.008897360821
   33          5.098080000000         0.000798347301
   34          2.378760000000         0.014100339045
   35          1.237550000000         0.014251479382
   36        124.602000000000        -0.000140683655
   37         20.889900000000         0.004055708424
   38         13.058500000000        -0.050934713698
   39          8.160610000000         0.135016905279
   40          5.098080000000        -0.012114871376
   41          2.378760000000        -0.213971781028
   42          1.237550000000        -0.216265326378
   43          0.608325000000        -0.057062595340
   44          0.608325000000        -0.026833927881
 P 44
    1        124.602000000000        -0.000024005540
    2         20.889900000000         0.000827062707
    3         13.058500000000        -0.008781309035
    4          8.160610000000         0.020972789856
    5          5.098080000000         0.000841578876
    6          2.378760000000        -0.030169630709
    7          1.237550000000        -0.025698085723
    8        124.602000000000        -0.000011288707
    9         20.889900000000         0.000388929752
   10         13.058500000000        -0.004129447880
   11          8.160610000000         0.009862543529
   12          5.098080000000         0.000395756042
   13          2.378760000000        -0.014187397012
   14          1.237550000000        -0.012084633985
   15        124.602000000000         0.000171305438
   16         20.889900000000        -0.005901985148
   17         13.058500000000         0.062664118551
   18          8.160610000000        -0.149663493746
   19          5.098080000000        -0.006005573687
   20          2.378760000000         0.215292880341
   21          1.237550000000         0.183383580262
   22        124.602000000000         0.000036887388
   23         20.889900000000        -0.001063410605
   24         13.058500000000         0.013355130358
   25          8.160610000000        -0.035401560933
   26          5.098080000000         0.003176530793
   27          2.378760000000         0.056103604421
   28          1.237550000000         0.056704974193
   29        124.602000000000         0.000017346451
   30         20.889900000000        -0.000500073355
   31         13.058500000000         0.006280306788
   32          8.160610000000        -0.016647734427
   33          5.098080000000         0.001493777100
   34          2.378760000000         0.026382958326
   35          1.237550000000         0.026665755016
   36        124.602000000000        -0.000263231331
   37         20.889900000000         0.007588582516
   38         13.058500000000        -0.095303270695
   39          8.160610000000         0.252628349860
   40          5.098080000000        -0.022667975970
   41          2.378760000000        -0.400359776030
   42          1.237550000000        -0.404651198470
   43          0.608325000000        -0.076614630231
   44          0.608325000000        -0.036028355351
 P 44
    1        124.602000000000        -0.000108700506
    2         20.889900000000         0.003745057840
    3         13.058500000000        -0.039763019144
    4          8.160610000000         0.094967782275
    5          5.098080000000         0.003810789125
    6          2.378760000000        -0.136612388725
    7          1.237550000000        -0.116364595582
    8        124.602000000000        -0.000051116875
    9         20.889900000000         0.001761129360
   10         13.058500000000        -0.018698728682
   11          8.160610000000         0.044659003077
   12          5.098080000000         0.001792039776
   13          2.378760000000        -0.064242556184
   14          1.237550000000        -0.054720945437
   15        124.602000000000         0.000775695444
   16         20.889900000000        -0.026725030120
   17         13.058500000000         0.283752062005
   18          8.160610000000        -0.677697635254
   19          5.098080000000        -0.027194093791
   20          2.378760000000         0.974876853681
   21          1.237550000000         0.830386994033
   22        124.602000000000         0.000148475833
   23         20.889900000000        -0.004280345745
   24         13.058500000000         0.053755882390
   25          8.160610000000        -0.142495213064
   26          5.098080000000         0.012785889103
   27          2.378760000000         0.225823236463
   28          1.237550000000         0.228243816557
   29        124.602000000000         0.000069821391
   30         20.889900000000        -0.002012850771
   31         13.058500000000         0.025278932071
   32          8.160610000000        -0.067008979322
   33          5.098080000000         0.006012618671
   34          2.378760000000         0.106194336337
   35          1.237550000000         0.107332624410
   36        124.602000000000        -0.001059535332
   37         20.889900000000         0.030544887119
   38         13.058500000000        -0.383606245231
   39          8.160610000000         1.016857155289
   40          5.098080000000        -0.091241119907
   41          2.378760000000        -1.611492546948
   42          1.237550000000        -1.628765998708
   43          0.608325000000        -0.602548425908
   44          0.608325000000        -0.283350957157
 P 44
    1        124.602000000000         0.001242329363
    2         20.889900000000        -0.042801965546
    3         13.058500000000         0.454448355231
    4          8.160610000000        -1.085379163447
    5          5.098080000000        -0.043553203131
    6          2.378760000000         1.561332029020
    7          1.237550000000         1.329921625864
    8        124.602000000000         0.000584210696
    9         20.889900000000        -0.020127807338
   10         13.058500000000         0.213706282473
   11          8.160610000000        -0.510404193180
   12          5.098080000000        -0.020481080025
   13          2.378760000000         0.734223063603
   14          1.237550000000         0.625401331905
   15        124.602000000000        -0.008865361551
   16         20.889900000000         0.305438244363
   17         13.058500000000        -3.242979755820
   18          8.160610000000         7.745352390274
   19          5.098080000000         0.310799135760
   20          2.378760000000       -11.141790049267
   21          1.237550000000        -9.490426931589
   22        124.602000000000        -0.000882316554
   23         20.889900000000         0.025435923385
   24         13.058500000000        -0.319443939199
   25          8.160610000000         0.846776764784
   26          5.098080000000        -0.075980052782
   27          2.378760000000        -1.341952936340
   28          1.237550000000        -1.356337215904
   29        124.602000000000        -0.000414913133
   30         20.889900000000         0.011961351747
   31         13.058500000000        -0.150219878494
   32          8.160610000000         0.398200394838
   33          5.098080000000        -0.035729944745
   34          2.378760000000        -0.631059107107
   35          1.237550000000        -0.637823376086
   36        124.602000000000         0.006296281390
   37         20.889900000000        -0.181512780625
   38         13.058500000000         2.279577461366
   39          8.160610000000        -6.042666618294
   40          5.098080000000         0.542199724524
   41          2.378760000000         9.576283323985
   42          1.237550000000         9.678930691702
   43          0.608325000000        -0.120651986376
   44          0.608325000000        -0.056737112554
 end
  // -----------------------------------------------
  // The basis set
  // -----------------------------------------------
  BAS[ATNO] = new BFNGauss[NSH];
  // Basis function   1 L = s
  InitBFNGauss(BAS[ATNO][  0]);
  BAS[ATNO][  0].l  = 0;
  BAS[ATNO][  0].ng = 25;
  BAS[ATNO][  0].a[  0] =      9090.280000000001;     BAS[ATNO][  0].d[  0] =         0.000031296931;
  BAS[ATNO][  0].a[  1] =      1373.070000000000;     BAS[ATNO][  0].d[  1] =         0.000216395713;
  BAS[ATNO][  0].a[  2] =       307.950000000000;     BAS[ATNO][  0].d[  2] =         0.000728770742;
  BAS[ATNO][  0].a[  3] =        48.017600000000;     BAS[ATNO][  0].d[  3] =         0.007569379634;
  BAS[ATNO][  0].a[  4] =        23.909900000000;     BAS[ATNO][  0].d[  4] =        -0.131744761284;
  BAS[ATNO][  0].a[  5] =        14.933400000000;     BAS[ATNO][  0].d[  5] =         0.565503744742;
  BAS[ATNO][  0].a[  6] =         9.331710000000;     BAS[ATNO][  0].d[  6] =        -0.551188541192;
  BAS[ATNO][  0].a[  7] =         5.832060000000;     BAS[ATNO][  0].d[  7] =        -0.553738791698;
  BAS[ATNO][  0].a[  8] =         2.287870000000;     BAS[ATNO][  0].d[  8] =         0.702055710441;
  BAS[ATNO][  0].a[  9] =         1.249830000000;     BAS[ATNO][  0].d[  9] =         0.586701584402;
  BAS[ATNO][  0].a[ 10] =      9090.280000000001;     BAS[ATNO][  0].d[ 10] =         0.000006920600;
  BAS[ATNO][  0].a[ 11] =      1373.070000000000;     BAS[ATNO][  0].d[ 11] =         0.000046258721;
  BAS[ATNO][  0].a[ 12] =       307.950000000000;     BAS[ATNO][  0].d[ 12] =         0.000166094280;
  BAS[ATNO][  0].a[ 13] =        48.017600000000;     BAS[ATNO][  0].d[ 13] =         0.001338588860;
  BAS[ATNO][  0].a[ 14] =        23.909900000000;     BAS[ATNO][  0].d[ 14] =        -0.024843480556;
  BAS[ATNO][  0].a[ 15] =        14.933400000000;     BAS[ATNO][  0].d[ 15] =         0.115610003359;
  BAS[ATNO][  0].a[ 16] =         9.331710000000;     BAS[ATNO][  0].d[ 16] =        -0.132492613736;
  BAS[ATNO][  0].a[ 17] =         5.832060000000;     BAS[ATNO][  0].d[ 17] =        -0.099269384843;
  BAS[ATNO][  0].a[ 18] =         2.287870000000;     BAS[ATNO][  0].d[ 18] =         0.194662507804;
  BAS[ATNO][  0].a[ 19] =         1.249830000000;     BAS[ATNO][  0].d[ 19] =         0.223243474110;
  BAS[ATNO][  0].a[ 20] =         0.575368000000;     BAS[ATNO][  0].d[ 20] =        -0.349420077570;
  BAS[ATNO][  0].a[ 21] =         0.331459000000;     BAS[ATNO][  0].d[ 21] =         0.309935955059;
  BAS[ATNO][  0].a[ 22] =         0.163367000000;     BAS[ATNO][  0].d[ 22] =        -0.148509380452;
  BAS[ATNO][  0].a[ 23] =         0.076210000000;     BAS[ATNO][  0].d[ 23] =         0.053922132416;
  BAS[ATNO][  0].a[ 24] =         0.029700000000;     BAS[ATNO][  0].d[ 24] =        -0.011053791710;

FINAL SINGLE POINT ENERGY      -232.036590234861

DIPOLE MOMENT
-------------
                                X             Y             Z
Electronic contribution:      0.00000      -0.00000      -0.00000
Nuclear contribution   :      0.00000       0.00000       0.00000
                        -----------------------------------------
Total Dipole Moment    :      0.00000      -0.00000      -0.00000
                        -----------------------------------------
Magnitude (a.u.)       :      0.00000
Magnitude (Debye)      :      0.00000

Rotational constants in cm-1:     0.000000     0.000000     0.000000
Rotational constants in MHz :     0.000000     0.000000     0.000000

                             ****ORCA TERMINATED NORMALLY****
TOTAL RUN TIME: 0 days 0 hours 0 minutes 1 seconds 114 msec
