                         Program Version 4.2.0 -  RELEASE  -
|  1> #
|  2> # 85_At CCSD(T)/aug-cc-pVQZ-PP
|  3> #
|  4> ! CCSD(T) aug-cc-pVQZ-PP tightscf slowconv
|  5>
|  6> *xyz 0 2
|  7>  At 0.0 0.0 0.0
|  8> *
|  9>
| 10> %maxcore 5000
| 11>
| 12> %pal
| 13> nprocs 24
| 14> end
| 15>
| 16>
| 17>                          ****END OF INPUT****

CARTESIAN COORDINATES (ANGSTROEM)
---------------------------------
  At     0.000000    0.000000    0.000000

 Total Charge           Charge          ....    0
 Multiplicity           Mult            ....    2
 Number of Electrons    NEL             ....   25
 Basis Dimension        Dim             ....   92

ORBITAL ENERGIES
----------------
                 SPIN UP ORBITALS
  NO   OCC          E(Eh)            E(eV)
   0   1.0000      -7.815304      -212.6652
   1   1.0000      -5.118724      -139.2876
   2   1.0000      -5.097337      -138.7056
   3   1.0000      -5.097337      -138.7056
   4   1.0000      -1.839489       -50.0550
   5   1.0000      -1.832788       -49.8727
   6   1.0000      -1.832788       -49.8727
   7   1.0000      -1.813515       -49.3482
   8   1.0000      -1.813515       -49.3482
   9   1.0000      -0.978636       -26.6300
  10   1.0000      -0.432410       -11.7665
  11   1.0000      -0.377390       -10.2693
  12   1.0000      -0.377390       -10.2693
  13   0.0000       0.045585         1.2404
  14   0.0000       0.052548         1.4299
  15   0.0000       0.057014         1.5514
  16   0.0000       0.057014         1.5514
  17   0.0000       0.135746         3.6938

                 SPIN DOWN ORBITALS
  NO   OCC          E(Eh)            E(eV)
   0   1.0000      -7.808100      -212.4692
   1   1.0000      -5.101949      -138.8311
   2   1.0000      -5.097064      -138.6982
   3   1.0000      -5.097064      -138.6982
   4   1.0000      -1.826294       -49.6960
   5   1.0000      -1.822785       -49.6005
   6   1.0000      -1.822785       -49.6005
   7   1.0000      -1.813301       -49.3424
   8   1.0000      -1.813301       -49.3424
   9   1.0000      -0.897772       -24.4296
  10   1.0000      -0.359213        -9.7747
  11   1.0000      -0.359213        -9.7747
  12   0.0000      -0.048047        -1.3074
  13   0.0000       0.048703         1.3253
  14   0.0000       0.057346         1.5605
  15   0.0000       0.057346         1.5605
  16   0.0000       0.060053         1.6341

E(0)                                       ...   -261.361312952
E(0)                                       ...   -261.361312952
E(CORR)                                    ...     -0.295296522
E(TOT)                                     ...   -261.656609474
E(CCSD(T))                                 ...   -261.665735466

MULLIKEN ATOMIC CHARGES AND SPIN DENSITIES
------------------------------------------
   0 At:   -0.000000    1.000000
Sum of atomic charges       :   -0.0000000

LOEWDIN ATOMIC CHARGES AND SPIN DENSITIES
-----------------------------------------
   0 At:   -0.000000    1.000000

FINAL SINGLE POINT ENERGY      -261.665735465525

DIPOLE MOMENT
-------------
                                X             Y             Z
Electronic contribution:     -0.00000      -0.00000      -0.00000
Nuclear contribution   :      0.00000       0.00000       0.00000
                        -----------------------------------------
Total Dipole Moment    :     -0.00000      -0.00000      -0.00000
                        -----------------------------------------
Magnitude (a.u.)       :      0.00000
Magnitude (Debye)      :      0.00000

Rotational constants in cm-1:     0.000000     0.000000     0.000000
Rotational constants in MHz :     0.000000     0.000000     0.000000

                             ****ORCA TERMINATED NORMALLY****
TOTAL RUN TIME: 0 days 0 hours 0 minutes 22 seconds 936 msec
