                         Program Version 4.2.0 -  RELEASE  -
|  1> # input to generate an atomic fitting density for Rn
|  2> # this file is use internally by ORCA
|  3> #
|  4> # atomic ground state (S=1): 1s2 2s2 2p6 3s2 3p6 4s2 3d10 4p6 5s2 4d10 5p6 6s2 4f14 5d10 6p6
|  5> #
|  6> ! RHF AllowRHF def2-SVP def2/J  NoMulliken NoLoewdin NoMayer NoPrintMOs
|  7>
|  8> %output print[p_atomdensfit] 2 end
|  9>
| 10> %scf
| 11>   guess hcore
| 12>   maxiter 1000
| 13>   maxdisk 500000
| 14>   SCFMode Conventional
| 15>   lshift 1.000000
| 16>   hftyp rohf
| 17>   rohf_case sahf
| 18>   rohf_numop   2
| 19>   rohf_norb[1] 3
| 20>   rohf_nel[1]  6
| 21> end
| 22>
| 23> %basis
| 24>   NewECP 86
| 25>     N_core 60
| 26>     lmax h
| 27>     s 3
| 28>       1      30.1512420000     49.9655510000  2
| 29>       2      14.5212410000    283.0700000000  2
| 30>       3       8.0520380000     62.0028700000  2
| 31>     p 4
| 32>       1      11.0099420000     71.9691190000  2
| 33>       2       9.6176250000    143.8605590000  2
| 34>       3       7.3360080000      4.7147610000  2
| 35>       4       6.4062530000      9.0130650000  2
| 36>     d 4
| 37>       1       8.3692200000     36.3683650000  2
| 38>       2       8.1169750000     54.5517610000  2
| 39>       3       5.3536560000      9.6344870000  2
| 40>       4       5.0972120000     14.3879020000  2
| 41>     f 4
| 42>       1       6.3485710000     21.7972900000  2
| 43>       2       6.2959490000     28.9468050000  2
| 44>       3       2.8821180000      1.4473650000  2
| 45>       4       2.9080480000      2.1779640000  2
| 46>     g 4
| 47>       1      11.0152050000    -25.2280950000  2
| 48>       2      10.9098530000    -30.5661210000  2
| 49>       3       3.4827610000     -0.5748000000  2
| 50>       4       3.6004180000     -0.7795380000  2
| 51>     h 1
| 52>       1       1.0000000000      0.0000000000  2
| 53>   end
| 54>   NewGTO 86
| 55>     s 10
| 56>      1   12715.6000000000      0.0000505444
| 57>      2    1913.3000000000      0.0003634892
| 58>      3     429.9560000000      0.0013765270
| 59>      4     100.9780000000      0.0029917954
| 60>      5      24.4708000000     -0.1079939193
| 61>      6      15.2922000000      0.5805330510
| 62>      7       9.5548300000     -0.6171314623
| 63>      8       5.9666100000     -0.6560011432
| 64>      9       2.3893900000      0.8530735653
| 65>     10       1.3188000000      0.7007350441
| 66>     s 10
| 67>      1   12715.6000000000      0.0000308534
| 68>      2    1913.3000000000      0.0002148718
| 69>      3     429.9560000000      0.0008473661
| 70>      4     100.9780000000      0.0016495539
| 71>      5      24.4708000000     -0.0546468462
| 72>      6      15.2922000000      0.3190658256
| 73>      7       9.5548300000     -0.4055423413
| 74>      8       5.9666100000     -0.3012138393
| 75>      9       2.3893900000      0.6367707968
| 76>     10       1.3188000000      0.6938539581
| 77>     s 1
| 78>      1       0.6257230000      1.0000000000
| 79>     s 1
| 80>      1       0.3569110000      1.0000000000
| 81>     s 1
| 82>      1       0.1775300000      1.0000000000
| 83>     s 1
| 84>      1       0.0834340000      1.0000000000
| 85>     s 1
| 86>      1       0.0320000000      1.0000000000
| 87>     p 7
| 88>      1     131.7080000000      0.0006384637
| 89>      2      21.4016000000     -0.0157575035
| 90>      3      13.3826000000      0.1856401548
| 91>      4       8.3688000000     -0.4611170697
| 92>      5       5.2294500000     -0.0018761012
| 93>      6       2.4768500000      0.6560984403
| 94>      7       1.3018000000      0.5378156648
| 95>     p 7
| 96>      1     131.7080000000     -0.0004655684
| 97>      2      21.4016000000      0.0086866307
| 98>      3      13.3826000000     -0.1300209147
| 99>      4       8.3688000000      0.3627593469
|100>      5       5.2294500000     -0.0470980121
|101>      6       2.4768500000     -0.5768770332
|102>      7       1.3018000000     -0.5572137326
|103>     p 1
|104>      1       0.6457100000      1.0000000000
|105>     p 1
|106>      1       0.3128970000      1.0000000000
|107>     p 1
|108>      1       0.1428530000      1.0000000000
|109>     p 1
|110>      1       0.0625560000      1.0000000000
|111>     p 1
|112>      1       0.0255000000      1.0000000000
|113>   end
|114>   NewAuxGTO 86
|115>     S 1
|116>      1 1310.72 1.0
|117>     S 1
|118>      1  655.36 1.0
|119>     S 1
|120>      1  327.68 1.0
|121>     S 1
|122>      1  163.84 1.0
|123>     S 1
|124>      1   81.82 1.0
|125>     S 1
|126>      1   40.96 1.0
|127>     S 1
|128>      1   20.48 1.0
|129>     S 1
|130>      1   10.24 1.0
|131>     S 1
|132>      1    5.12 1.0
|133>     S 1
|134>      1    2.56 1.0
|135>     S 1
|136>      1    1.28 1.0
|137>     S 1
|138>      1    0.64 1.0
|139>     S 1
|140>      1    0.32 1.0
|141>     S 1
|142>      1    0.16 1.0
|143>     S 1
|144>      1    0.08 1.0
|145>     S 1
|146>      1    0.04 1.0
|147>     S 1
|148>      1    0.02 1.0
|149>     S 1
|150>      1    0.01 1.0
|151>   end
|152> end
|153>
|154> * xyz 0 1
|155> 86  0.0 0.0 0.0
|156> *
|157>
|158>
|159>                          ****END OF INPUT****

CARTESIAN COORDINATES (ANGSTROEM)
---------------------------------
  Rn     0.000000    0.000000    0.000000

 Total Charge           Charge          ....    0
 Multiplicity           Mult            ....    1
 Number of Electrons    NEL             ....   26
 Basis Dimension        Dim             ....   28

ORBITAL ENERGIES
----------------

  NO   OCC          E(Eh)            E(eV)
   0   2.0000     -12.556412      -341.6773
   1   2.0000      -9.399783      -255.7811
   2   2.0000      -9.397657      -255.7232
   3   2.0000      -9.397657      -255.7232
   4   2.0000      -3.606684       -98.1429
   5   2.0000      -2.439464       -66.3812
   6   2.0000      -2.044315       -55.6286
   7   2.0000      -2.044315       -55.6286
   8   2.0000      -0.463513       -12.6128
   9   2.0000      -0.107858        -2.9350
  10   2.0000      -0.860786       -23.4232
  11   2.0000      -0.860786       -23.4232
  12   2.0000      -0.843338       -22.9484
  13   0.0000       0.038534         1.0486
  14   0.0000       0.038539         1.0487
  15   0.0000       0.038539         1.0487
  16   0.0000       0.293414         7.9842
  17   0.0000       0.293420         7.9844

CleanUpVectors: The p-vectors have cracked symmetry
CleanUpVectors: The p-vectors have cracked symmetry
CleanUpVectors: The p-vectors have cracked symmetry
CleanUpVectors: The p-vectors have cracked symmetry
CleanUpVectors: The p-vectors have cracked symmetry
CleanUpVectors: The p-vectors have cracked symmetry
CleanUpVectors: The p-vectors have cracked symmetry
CleanUpVectors: The p-vectors have cracked symmetry
CleanUpVectors: The p-vectors have cracked symmetry
CleanUpVectors: The p-vectors have cracked symmetry
CleanUpVectors: The p-vectors have cracked symmetry
CleanUpVectors: The p-vectors have cracked symmetry
--------------------------
ATOM BASIS FOR ELEMENT Rn
--------------------------
 NewGTO Rn
 S 25
    1      12715.600000000000         0.000042190950
    2       1913.300000000000         0.000303415509
    3        429.956000000000         0.001149029022
    4        100.978000000000         0.002497342764
    5         24.470800000000        -0.090145814440
    6         15.292200000000         0.484588623422
    7          9.554830000000        -0.515138432292
    8          5.966610000000        -0.547584139092
    9          2.389390000000         0.712086493567
   10          1.318800000000         0.584924888977
   11      12715.600000000000         0.000009503385
   12       1913.300000000000         0.000066184263
   13        429.956000000000         0.000261003541
   14        100.978000000000         0.000508091378
   15         24.470800000000        -0.016832181956
   16         15.292200000000         0.098277840457
   17          9.554830000000        -0.124914115894
   18          5.966610000000        -0.092779117245
   19          2.389390000000         0.196136514019
   20          1.318800000000         0.213719123527
   21          0.625723000000        -0.335659870655
   22          0.356911000000         0.306722507024
   23          0.177530000000        -0.155542408484
   24          0.083434000000         0.049772264610
   25          0.032000000000        -0.011073430920
 P 44
    1        131.708000000000         0.000028101198
    2         21.401600000000        -0.000693547212
    3         13.382600000000         0.008170723980
    4          8.368800000000        -0.020295502893
    5          5.229450000000        -0.000082574296
    6          2.476850000000         0.028877369042
    7          1.301800000000         0.023671297590
    8        131.708000000000        -0.000006140681
    9         21.401600000000         0.000151554119
   10         13.382600000000        -0.001785468758
   11          8.368800000000         0.004434978642
   12          5.229450000000         0.000018044157
   13          2.476850000000        -0.006310290295
   14          1.301800000000        -0.005172658189
   15        131.708000000000        -0.000486626020
   16         21.401600000000         0.012010097375
   17         13.382600000000        -0.141491723982
   18          8.368800000000         0.351455476968
   19          5.229450000000         0.001429931975
   20          2.476850000000        -0.500066914511
   21          1.301800000000        -0.409913823221
   22        131.708000000000         0.000008395559
   23         21.401600000000        -0.000156645340
   24         13.382600000000         0.002344657100
   25          8.368800000000        -0.006541611251
   26          5.229450000000         0.000849314810
   27          2.476850000000         0.010402778931
   28          1.301800000000         0.010048192151
   29        131.708000000000        -0.000001834600
   30         21.401600000000         0.000034230181
   31         13.382600000000        -0.000512355088
   32          8.368800000000         0.001429474615
   33          5.229450000000        -0.000185592496
   34          2.476850000000        -0.002273217994
   35          1.301800000000        -0.002195733598
   36        131.708000000000        -0.000145385172
   37         21.401600000000         0.002712613866
   38         13.382600000000        -0.040602225227
   39          8.368800000000         0.113280519062
   40          5.229450000000        -0.014707511476
   41          2.476850000000        -0.180144027478
   42          1.301800000000        -0.174003678739
   43          0.645710000000        -0.009114854136
   44          0.645710000000         0.001991780328
 S 25
    1      12715.600000000000        -0.000029199931
    2       1913.300000000000        -0.000209990812
    3        429.956000000000        -0.000795231391
    4        100.978000000000        -0.001728385726
    5         24.470800000000         0.062389008476
    6         15.292200000000        -0.335378896092
    7          9.554830000000         0.356522110521
    8          5.966610000000         0.378977456775
    9          2.389390000000        -0.492827876247
   10          1.318800000000        -0.404820612950
   11      12715.600000000000         0.000074350883
   12       1913.300000000000         0.000517800566
   13        429.956000000000         0.002041992695
   14        100.978000000000         0.003975114196
   15         24.470800000000        -0.131688606291
   16         15.292200000000         0.768888541794
   17          9.554830000000        -0.977280656277
   18          5.966610000000        -0.725868617336
   19          2.389390000000         1.534497680809
   20          1.318800000000         1.672057347596
   21          0.625723000000        -2.188175969790
   22          0.356911000000         0.398695647157
   23          0.177530000000        -0.427692413493
   24          0.083434000000         0.109609309401
   25          0.032000000000        -0.029451684926
 P 44
    1        131.708000000000        -0.000023675177
    2         21.401600000000         0.000584311495
    3         13.382600000000        -0.006883811035
    4          8.368800000000         0.017098901777
    5          5.229450000000         0.000069568603
    6          2.476850000000        -0.024329098886
    7          1.301800000000        -0.019942998928
    8        131.708000000000         0.000005173506
    9         21.401600000000        -0.000127683902
   10         13.382600000000         0.001504252202
   11          8.368800000000        -0.003736456523
   12          5.229450000000        -0.000015202149
   13          2.476850000000         0.005316401101
   14          1.301800000000         0.004357949382
   15        131.708000000000         0.000409980997
   16         21.401600000000        -0.010118471883
   17         13.382600000000         0.119206363281
   18          8.368800000000        -0.296100210566
   19          5.229450000000        -0.001204713503
   20          2.476850000000         0.421304911681
   21          1.301800000000         0.345351196165
   22        131.708000000000         0.000047425571
   23         21.401600000000        -0.000884871953
   24         13.382600000000         0.013244704959
   25          8.368800000000        -0.036952828182
   26          5.229450000000         0.004797684095
   27          2.476850000000         0.058764131295
   28          1.301800000000         0.056761110354
   29        131.708000000000        -0.000010363448
   30         21.401600000000         0.000193362452
   31         13.382600000000        -0.002894236419
   32          8.368800000000         0.008074941755
   33          5.229450000000        -0.001048391193
   34          2.476850000000        -0.012841153460
   35          1.301800000000        -0.012403452796
   36        131.708000000000        -0.000821264528
   37         21.401600000000         0.015323251458
   38         13.382600000000        -0.229357415962
   39          8.368800000000         0.639908945518
   40          5.229450000000        -0.083081082587
   41          2.476850000000        -1.017613404488
   42          1.301800000000        -0.982927263221
   43          0.645710000000        -0.081367824609
   44          0.645710000000         0.017780518481
 S 25
    1      12715.600000000000        -0.000033923893
    2       1913.300000000000        -0.000243963103
    3        429.956000000000        -0.000923883841
    4        100.978000000000        -0.002008003784
    5         24.470800000000         0.072482295626
    6         15.292200000000        -0.389636458198
    7          9.554830000000         0.414200219607
    8          5.966610000000         0.440288389387
    9          2.389390000000        -0.572557517602
   10          1.318800000000        -0.470312448617
   11      12715.600000000000         0.000061595785
   12       1913.300000000000         0.000428970462
   13        429.956000000000         0.001691683260
   14        100.978000000000         0.003293172478
   15         24.470800000000        -0.109097065521
   16         15.292200000000         0.636983608417
   17          9.554830000000        -0.809625485404
   18          5.966610000000        -0.601343869722
   19          2.389390000000         1.271250404576
   20          1.318800000000         1.385211334100
   21          0.625723000000        -2.267692452630
   22          0.356911000000         0.052502716374
   23          0.177530000000         0.912081901391
   24          0.083434000000         0.580801119139
   25          0.032000000000         0.067179492006
 S 25
    1      12715.600000000000        -0.000021022107
    2       1913.300000000000        -0.000151180126
    3        429.956000000000        -0.000572516391
    4        100.978000000000        -0.001244328594
    5         24.470800000000         0.044916146926
    6         15.292200000000        -0.241451629712
    7          9.554830000000         0.256673409140
    8          5.966610000000         0.272839840635
    9          2.389390000000        -0.354804954259
   10          1.318800000000        -0.291445281371
   11      12715.600000000000         0.000037880941
   12       1913.300000000000         0.000263813582
   13        429.956000000000         0.001040372382
   14        100.978000000000         0.002025276112
   15         24.470800000000        -0.067093868337
   16         15.292200000000         0.391740090822
   17          9.554830000000        -0.497913536538
   18          5.966610000000        -0.369821921675
   19          2.389390000000         0.781809362698
   20          1.318800000000         0.851894470528
   21          0.625723000000        -0.487766808246
   22          0.356911000000        -4.083151855112
   23          0.177530000000         8.875507236742
   24          0.083434000000        -7.240558417178
   25          0.032000000000         2.311722723641
 S 25
    1      12715.600000000000        -0.000129662350
    2       1913.300000000000        -0.000932464602
    3        429.956000000000        -0.003531226515
    4        100.978000000000        -0.007674900125
    5         24.470800000000         0.277038511642
    6         15.292200000000        -1.489250630505
    7          9.554830000000         1.583137114677
    8          5.966610000000         1.682850122727
    9          2.389390000000        -2.188403128472
   10          1.318800000000        -1.797606707224
   11      12715.600000000000         0.000184140109
   12       1913.300000000000         0.001282403774
   13        429.956000000000         0.005057273614
   14        100.978000000000         0.009844912858
   15         24.470800000000        -0.326144807289
   16         15.292200000000         1.904257417200
   17          9.554830000000        -2.420368931573
   18          5.966610000000        -1.797712702611
   19          2.389390000000         3.800392945820
   20          1.318800000000         4.141078235754
   21          0.625723000000       -14.740899962417
   22          0.356911000000        21.085215751445
   23          0.177530000000       -14.399548374639
   24          0.083434000000         5.901305684391
   25          0.032000000000        -1.175443534106
 S 25
    1      12715.600000000000         0.000212537984
    2       1913.300000000000         0.001528463330
    3        429.956000000000         0.005788262876
    4        100.978000000000         0.012580427587
    5         24.470800000000        -0.454111829170
    6         15.292200000000         2.441127494880
    7          9.554830000000        -2.595022932770
    8          5.966610000000        -2.758469004615
    9          2.389390000000         3.587153792229
   10          1.318800000000         2.946573980296
   11      12715.600000000000        -0.000089814895
   12       1913.300000000000        -0.000625496319
   13        429.956000000000        -0.002466700500
   14        100.978000000000        -0.004801886021
   15         24.470800000000         0.159078116130
   16         15.292200000000        -0.928807314372
   17          9.554830000000         1.180542266407
   18          5.966610000000         0.876839807603
   19          2.389390000000        -1.853653153026
   20          1.318800000000        -2.019823433541
   21          0.625723000000        -4.012915531264
   22          0.356911000000         4.338292220522
   23          0.177530000000        -2.396155504262
   24          0.083434000000         0.904452833966
   25          0.032000000000        -0.182915411690
 P 44
    1        131.708000000000        -0.000015471036
    2         21.401600000000         0.000381830472
    3         13.382600000000        -0.004498369173
    4          8.368800000000         0.011173632202
    5          5.229450000000         0.000045461047
    6          2.476850000000        -0.015898354543
    7          1.301800000000        -0.013032166505
    8        131.708000000000         0.000516901045
    9         21.401600000000        -0.012757295398
   10         13.382600000000         0.150294511598
   11          8.368800000000        -0.373320981414
   12          5.229450000000        -0.001518893980
   13          2.476850000000         0.531178153514
   14          1.301800000000         0.435416264103
   15        131.708000000000        -0.000007416124
   16         21.401600000000         0.000183032499
   17         13.382600000000        -0.002156317551
   18          8.368800000000         0.005356140925
   19          5.229450000000         0.000021791998
   20          2.476850000000        -0.007620962090
   21          1.301800000000        -0.006247039379
   22        131.708000000000         0.000029173030
   23         21.401600000000        -0.000544313865
   24         13.382600000000         0.008147253986
   25          8.368800000000        -0.022730900962
   26          5.229450000000         0.002951213408
   27          2.476850000000         0.036147751452
   28          1.301800000000         0.034915627339
   29        131.708000000000        -0.000974696846
   30         21.401600000000         0.018186009935
   31         13.382600000000        -0.272206995807
   32          8.368800000000         0.759459601161
   33          5.229450000000        -0.098602662593
   34          2.476850000000        -1.207728499064
   35          1.301800000000        -1.166562137511
   36        131.708000000000         0.000013984249
   37         21.401600000000        -0.000260919790
   38         13.382600000000         0.003905430187
   39          8.368800000000        -0.010896180106
   40          5.229450000000         0.001414680082
   41          2.476850000000         0.017327619830
   42          1.301800000000         0.016736994484
   43          0.645710000000        -0.053359583501
   44          0.645710000000         1.782791103241
 P 44
    1        131.708000000000        -0.000125237033
    2         21.401600000000         0.003090893001
    3         13.382600000000        -0.036414007786
    4          8.368800000000         0.090449830664
    5          5.229450000000         0.000368004238
    6          2.476850000000        -0.128696152721
    7          1.301800000000        -0.105494545759
    8        131.708000000000        -0.000002056523
    9         21.401600000000         0.000050755693
   10         13.382600000000        -0.000597956065
   11          8.368800000000         0.001485280752
   12          5.229450000000         0.000006043014
   13          2.476850000000        -0.002113325332
   14          1.301800000000        -0.001732330697
   15        131.708000000000        -0.000007206113
   16         21.401600000000         0.000177849348
   17         13.382600000000        -0.002095254523
   18          8.368800000000         0.005204464665
   19          5.229450000000         0.000021174888
   20          2.476850000000        -0.007405150175
   21          1.301800000000        -0.006070134480
   22        131.708000000000         0.000107917782
   23         21.401600000000        -0.002013542833
   24         13.382600000000         0.030138576159
   25          8.368800000000        -0.084086858096
   26          5.229450000000         0.010917220725
   27          2.476850000000         0.133718890068
   28          1.301800000000         0.129160978104
   29        131.708000000000         0.000001772123
   30         21.401600000000        -0.000033064478
   31         13.382600000000         0.000494906919
   32          8.368800000000        -0.001380794092
   33          5.229450000000         0.000179272174
   34          2.476850000000         0.002195803929
   35          1.301800000000         0.002120958251
   36        131.708000000000         0.000006209567
   37         21.401600000000        -0.000115858841
   38         13.382600000000         0.001734167477
   39          8.368800000000        -0.004838340532
   40          5.229450000000         0.000628174637
   41          2.476850000000         0.007694157450
   42          1.301800000000         0.007431896132
   43          0.645710000000        -0.407673744657
   44          0.645710000000        -0.006694428961
 P 19
    1        131.708000000000         0.000123292576
    2         21.401600000000        -0.003042903129
    3         13.382600000000         0.035848636046
    4          8.368800000000        -0.089045487083
    5          5.229450000000        -0.000362290525
    6          2.476850000000         0.126697988494
    7          1.301800000000         0.103856614686
    8        131.708000000000        -0.000189437228
    9         21.401600000000         0.003534542388
   10         13.382600000000        -0.052904797066
   11          8.368800000000         0.147604788629
   12          5.229450000000        -0.019163922805
   13          2.476850000000        -0.234728100814
   14          1.301800000000        -0.226727211647
   15          0.645710000000         0.461157797085
   16          0.312897000000        -0.208911182055
   17          0.142853000000        -0.045328184816
   18          0.062556000000        -0.882973264695
   19          0.025500000000         1.513654141168
 P 44
    1        131.708000000000         0.000010833004
    2         21.401600000000        -0.000267362272
    3         13.382600000000         0.003149811991
    4          8.368800000000        -0.007823911141
    5          5.229450000000        -0.000031832370
    6          2.476850000000         0.011132218333
    7          1.301800000000         0.009125279128
    8        131.708000000000         0.000217997748
    9         21.401600000000        -0.005380259336
   10         13.382600000000         0.063385178747
   11          8.368800000000        -0.157444319725
   12          5.229450000000        -0.000640578058
   13          2.476850000000         0.224018973474
   14          1.301800000000         0.183632372441
   15        131.708000000000        -0.000002125316
   16         21.401600000000         0.000052453528
   17         13.382600000000        -0.000617958364
   18          8.368800000000         0.001534965052
   19          5.229450000000         0.000006245160
   20          2.476850000000        -0.002184018425
   21          1.301800000000        -0.001790279094
   22        131.708000000000        -0.000016853666
   23         21.401600000000         0.000314457709
   24         13.382600000000        -0.004706782220
   25          8.368800000000         0.013131958410
   26          5.229450000000        -0.001704957133
   27          2.476850000000        -0.020883060002
   28          1.301800000000        -0.020171244723
   29        131.708000000000        -0.000339154411
   30         21.401600000000         0.006327983428
   31         13.382600000000        -0.094716838085
   32          8.368800000000         0.264260703007
   33          5.229450000000        -0.034309670844
   34          2.476850000000        -0.420239841219
   35          1.301800000000        -0.405915640660
   36        131.708000000000         0.000003306503
   37         21.401600000000        -0.000061693133
   38         13.382600000000         0.000923418746
   39          8.368800000000        -0.002576345367
   40          5.229450000000         0.000334493780
   41          2.476850000000         0.004097025989
   42          1.301800000000         0.003957375684
   43          0.645710000000         0.029904252287
   44          0.645710000000         0.601777624152
 P 19
    1        131.708000000000         0.000941303906
    2         21.401600000000        -0.023231703837
    3         13.382600000000         0.273694186172
    4          8.368800000000        -0.679837081894
    5          5.229450000000        -0.002765985579
    6          2.476850000000         0.967303269382
    7          1.301800000000         0.792915847579
    8        131.708000000000        -0.001315352878
    9         21.401600000000         0.024542010774
   10         13.382600000000        -0.367343196644
   11          8.368800000000         1.024890329453
   12          5.229450000000        -0.133064240936
   13          2.476850000000        -1.629828969708
   14          1.301800000000        -1.574274986600
   15          0.645710000000         4.512140417257
   16          0.312897000000        -6.547297905720
   17          0.142853000000         5.108052502291
   18          0.062556000000        -2.462837134248
   19          0.025500000000         0.672285679091
 P 19
    1        131.708000000000        -0.010703832617
    2         21.401600000000         0.264174266965
    3         13.382600000000        -3.112253905804
    4          8.368800000000         7.730619502837
    5          5.229450000000         0.031452803375
    6          2.476850000000       -10.999478726008
    7          1.301800000000        -9.016470090641
    8        131.708000000000         0.007602965303
    9         21.401600000000        -0.141857032847
   10         13.382600000000         2.123306700194
   11          8.368800000000        -5.924041940544
   12          5.229450000000         0.769134141907
   13          2.476850000000         9.420691068107
   14          1.301800000000         9.099579514568
   15          0.645710000000         1.078791738307
   16          0.312897000000        -1.079549593047
   17          0.142853000000         0.652179182979
   18          0.062556000000        -0.293267825462
   19          0.025500000000         0.082531628486
 end
  // -----------------------------------------------
  // The basis set
  // -----------------------------------------------
  BAS[ATNO] = new BFNGauss[NSH];
  // Basis function   1 L = s
  InitBFNGauss(BAS[ATNO][  0]);
  BAS[ATNO][  0].l  = 0;
  BAS[ATNO][  0].ng = 25;
  BAS[ATNO][  0].a[  0] =     12715.600000000000;     BAS[ATNO][  0].d[  0] =         0.000042190950;
  BAS[ATNO][  0].a[  1] =      1913.300000000000;     BAS[ATNO][  0].d[  1] =         0.000303415509;
  BAS[ATNO][  0].a[  2] =       429.956000000000;     BAS[ATNO][  0].d[  2] =         0.001149029022;
  BAS[ATNO][  0].a[  3] =       100.978000000000;     BAS[ATNO][  0].d[  3] =         0.002497342764;
  BAS[ATNO][  0].a[  4] =        24.470800000000;     BAS[ATNO][  0].d[  4] =        -0.090145814440;
  BAS[ATNO][  0].a[  5] =        15.292200000000;     BAS[ATNO][  0].d[  5] =         0.484588623422;
  BAS[ATNO][  0].a[  6] =         9.554830000000;     BAS[ATNO][  0].d[  6] =        -0.515138432292;
  BAS[ATNO][  0].a[  7] =         5.966610000000;     BAS[ATNO][  0].d[  7] =        -0.547584139092;
  BAS[ATNO][  0].a[  8] =         2.389390000000;     BAS[ATNO][  0].d[  8] =         0.712086493567;
  BAS[ATNO][  0].a[  9] =         1.318800000000;     BAS[ATNO][  0].d[  9] =         0.584924888977;
  BAS[ATNO][  0].a[ 10] =     12715.600000000000;     BAS[ATNO][  0].d[ 10] =         0.000009503385;
  BAS[ATNO][  0].a[ 11] =      1913.300000000000;     BAS[ATNO][  0].d[ 11] =         0.000066184263;
  BAS[ATNO][  0].a[ 12] =       429.956000000000;     BAS[ATNO][  0].d[ 12] =         0.000261003541;
  BAS[ATNO][  0].a[ 13] =       100.978000000000;     BAS[ATNO][  0].d[ 13] =         0.000508091378;
  BAS[ATNO][  0].a[ 14] =        24.470800000000;     BAS[ATNO][  0].d[ 14] =        -0.016832181956;
  BAS[ATNO][  0].a[ 15] =        15.292200000000;     BAS[ATNO][  0].d[ 15] =         0.098277840457;
  BAS[ATNO][  0].a[ 16] =         9.554830000000;     BAS[ATNO][  0].d[ 16] =        -0.124914115894;
  BAS[ATNO][  0].a[ 17] =         5.966610000000;     BAS[ATNO][  0].d[ 17] =        -0.092779117245;
  BAS[ATNO][  0].a[ 18] =         2.389390000000;     BAS[ATNO][  0].d[ 18] =         0.196136514019;
  BAS[ATNO][  0].a[ 19] =         1.318800000000;     BAS[ATNO][  0].d[ 19] =         0.213719123527;
  BAS[ATNO][  0].a[ 20] =         0.625723000000;     BAS[ATNO][  0].d[ 20] =        -0.335659870655;
  BAS[ATNO][  0].a[ 21] =         0.356911000000;     BAS[ATNO][  0].d[ 21] =         0.306722507024;
  BAS[ATNO][  0].a[ 22] =         0.177530000000;     BAS[ATNO][  0].d[ 22] =        -0.155542408484;
  BAS[ATNO][  0].a[ 23] =         0.083434000000;     BAS[ATNO][  0].d[ 23] =         0.049772264610;
  BAS[ATNO][  0].a[ 24] =         0.032000000000;     BAS[ATNO][  0].d[ 24] =        -0.011073430920;

FINAL SINGLE POINT ENERGY      -253.479270682199

DIPOLE MOMENT
-------------
                                X             Y             Z
Electronic contribution:      0.00000      -0.00000      -0.00000
Nuclear contribution   :      0.00000       0.00000       0.00000
                        -----------------------------------------
Total Dipole Moment    :      0.00000      -0.00000      -0.00000
                        -----------------------------------------
Magnitude (a.u.)       :      0.00000
Magnitude (Debye)      :      0.00000

Rotational constants in cm-1:     0.000000     0.000000     0.000000
Rotational constants in MHz :     0.000000     0.000000     0.000000

                             ****ORCA TERMINATED NORMALLY****
TOTAL RUN TIME: 0 days 0 hours 0 minutes 1 seconds 19 msec
