                         Program Version 4.2.0 -  RELEASE  -
|  1> #
|  2> # 85_At CCSD(T)/aug-cc-pVQZ-PP
|  3> #
|  4> ! CCSD(T) aug-cc-pVQZ-PP tightscf slowconv
|  5>
|  6> *xyz 0 1
|  7>  Rn 0.0 0.0 0.0
|  8> *
|  9>
| 10> %maxcore 5000
| 11>
| 12> %pal
| 13> nprocs 24
| 14> end
| 15>
| 16>
| 17>                          ****END OF INPUT****

CARTESIAN COORDINATES (ANGSTROEM)
---------------------------------
  Rn     0.000000    0.000000    0.000000

 Total Charge           Charge          ....    0
 Multiplicity           Mult            ....    1
 Number of Electrons    NEL             ....   26
 Basis Dimension        Dim             ....   92

ORBITAL ENERGIES
----------------

  NO   OCC          E(Eh)            E(eV)
   0   2.0000      -8.326228      -226.5682
   1   2.0000      -5.537246      -150.6761
   2   2.0000      -5.537246      -150.6761
   3   2.0000      -5.537246      -150.6761
   4   2.0000      -2.087476       -56.8031
   5   2.0000      -2.087476       -56.8031
   6   2.0000      -2.087476       -56.8031
   7   2.0000      -2.087476       -56.8031
   8   2.0000      -2.087476       -56.8031
   9   2.0000      -1.070702       -29.1353
  10   2.0000      -0.427442       -11.6313
  11   2.0000      -0.427442       -11.6313
  12   2.0000      -0.427442       -11.6313
  13   0.0000       0.050234         1.3669
  14   0.0000       0.061692         1.6787
  15   0.0000       0.061692         1.6787
  16   0.0000       0.061692         1.6787
  17   0.0000       0.158406         4.3104

E(0)                                       ...   -287.543497360
E(0)                                       ...   -287.543497360
E(CORR)                                    ...     -0.338337522
E(TOT)                                     ...   -287.881834882
E(CCSD(T))                                 ...   -287.892025397

MULLIKEN ATOMIC CHARGES
-----------------------
   0 Rn:   -0.000000
Sum of atomic charges:   -0.0000000

LOEWDIN ATOMIC CHARGES
----------------------
   0 Rn:   -0.000000

FINAL SINGLE POINT ENERGY      -287.892025397216

DIPOLE MOMENT
-------------
                                X             Y             Z
Electronic contribution:      0.00000      -0.00000       0.00000
Nuclear contribution   :      0.00000       0.00000       0.00000
                        -----------------------------------------
Total Dipole Moment    :      0.00000      -0.00000       0.00000
                        -----------------------------------------
Magnitude (a.u.)       :      0.00000
Magnitude (Debye)      :      0.00000

Rotational constants in cm-1:     0.000000     0.000000     0.000000
Rotational constants in MHz :     0.000000     0.000000     0.000000

                             ****ORCA TERMINATED NORMALLY****
TOTAL RUN TIME: 0 days 0 hours 0 minutes 13 seconds 625 msec
