                         Program Version 4.2.0 -  RELEASE  -
|  1> #
|  2> # 08_O CCSD(T)/aug-cc-pV5Z
|  3> #
|  4> ! CCSD(T) aug-cc-pV5Z tightscf
|  5>
|  6> *xyz 0 3
|  7>  O 0.0 0.0 0.0
|  8> *
|  9>
| 10> %maxcore 5000
| 11>
| 12> %pal
| 13> nprocs 15
| 14> end
| 15>
| 16>
| 17>                          ****END OF INPUT****

CARTESIAN COORDINATES (ANGSTROEM)
---------------------------------
  O      0.000000    0.000000    0.000000

 Total Charge           Charge          ....    0
 Multiplicity           Mult            ....    3
 Number of Electrons    NEL             ....    8
 Basis Dimension        Dim             ....  127

ORBITAL ENERGIES
----------------
                 SPIN UP ORBITALS
  NO   OCC          E(Eh)            E(eV)
   0   1.0000     -20.707589      -563.4821
   1   1.0000      -1.418321       -38.5945
   2   1.0000      -0.711072       -19.3493
   3   1.0000      -0.711072       -19.3493
   4   1.0000      -0.611630       -16.6433
   5   0.0000       0.104286         2.8378
   6   0.0000       0.104286         2.8378
   7   0.0000       0.109744         2.9863
   8   0.0000       0.121303         3.3008
   9   0.0000       0.391810        10.6617

                 SPIN DOWN ORBITALS
  NO   OCC          E(Eh)            E(eV)
   0   1.0000     -20.629231      -561.3499
   1   1.0000      -1.075572       -29.2678
   2   1.0000      -0.521681       -14.1957
   3   0.0000       0.057801         1.5728
   4   0.0000       0.057801         1.5728
   5   0.0000       0.111682         3.0390
   6   0.0000       0.130225         3.5436
   7   0.0000       0.159001         4.3266

E(0)                                       ...    -74.818838300
E(0)                                       ...    -74.818838300
E(CORR)                                    ...     -0.177862752
E(TOT)                                     ...    -74.996701052
E(CCSD(T))                                 ...    -75.000753006

MULLIKEN ATOMIC CHARGES AND SPIN DENSITIES
------------------------------------------
   0 O :   -0.000000    2.000000
Sum of atomic charges       :   -0.0000000

LOEWDIN ATOMIC CHARGES AND SPIN DENSITIES
-----------------------------------------
   0 O :   -0.000000    2.000000

FINAL SINGLE POINT ENERGY       -75.000753006396

DIPOLE MOMENT
-------------
                                X             Y             Z
Electronic contribution:     -0.00000       0.00000      -0.00000
Nuclear contribution   :      0.00000       0.00000       0.00000
                        -----------------------------------------
Total Dipole Moment    :     -0.00000       0.00000      -0.00000
                        -----------------------------------------
Magnitude (a.u.)       :      0.00000
Magnitude (Debye)      :      0.00000

Rotational constants in cm-1:     0.000000     0.000000     0.000000
Rotational constants in MHz :     0.000000     0.000000     0.000000

                             ****ORCA TERMINATED NORMALLY****
TOTAL RUN TIME: 0 days 0 hours 0 minutes 43 seconds 882 msec
