                         Program Version 4.2.0 -  RELEASE  -
|  1> #
|  2> # 11_Na CCSD(T)/aug-cc-pV5Z
|  3> #
|  4> ! HF aug-cc-pV5Z tightscf
|  5>
|  6> *xyz 0 2
|  7>  Na 0.0 0.0 0.0
|  8> *
|  9>
| 10> %maxcore 5000
| 11>
| 12> %pal
| 13> nprocs 24
| 14> end
| 15>
| 16> %method
| 17> NewNCore Na 10 end
| 18> end
| 19>
| 20>
| 21>                          ****END OF INPUT****

CARTESIAN COORDINATES (ANGSTROEM)
---------------------------------
  Na     0.000000    0.000000    0.000000

 Total Charge           Charge          ....    0
 Multiplicity           Mult            ....    2
 Number of Electrons    NEL             ....   11
 Basis Dimension        Dim             ....  131

ORBITAL ENERGIES
----------------
                 SPIN UP ORBITALS
  NO   OCC          E(Eh)            E(eV)
   0   1.0000     -40.479763     -1101.5104
   1   1.0000      -2.800479       -76.2049
   2   1.0000      -1.519097       -41.3367
   3   1.0000      -1.519097       -41.3367
   4   1.0000      -1.519097       -41.3367
   5   1.0000      -0.182188        -4.9576
   6   0.0000       0.008890         0.2419
   7   0.0000       0.008890         0.2419
   8   0.0000       0.008890         0.2419
   9   0.0000       0.010885         0.2962
  10   0.0000       0.026076         0.7096

                 SPIN DOWN ORBITALS
  NO   OCC          E(Eh)            E(eV)
   0   1.0000     -40.477179     -1101.4400
   1   1.0000      -2.793485       -76.0146
   2   1.0000      -1.517063       -41.2814
   3   1.0000      -1.517063       -41.2814
   4   1.0000      -1.517063       -41.2814
   5   0.0000       0.003648         0.0993
   6   0.0000       0.010899         0.2966
   7   0.0000       0.010899         0.2966
   8   0.0000       0.010899         0.2966
   9   0.0000       0.024094         0.6556

MULLIKEN ATOMIC CHARGES AND SPIN POPULATIONS
--------------------------------------------
   0 Na:    0.000000    1.000000
Sum of atomic charges         :    0.0000000

LOEWDIN ATOMIC CHARGES AND SPIN POPULATIONS
-------------------------------------------
   0 Na:    0.000000    1.000000

FINAL SINGLE POINT ENERGY      -161.858928207105

DIPOLE MOMENT
-------------
                                X             Y             Z
Electronic contribution:     -0.00000      -0.00000      -0.00000
Nuclear contribution   :      0.00000       0.00000       0.00000
                        -----------------------------------------
Total Dipole Moment    :     -0.00000      -0.00000      -0.00000
                        -----------------------------------------
Magnitude (a.u.)       :      0.00000
Magnitude (Debye)      :      0.00000

Rotational constants in cm-1:     0.000000     0.000000     0.000000
Rotational constants in MHz :     0.000000     0.000000     0.000000

                             ****ORCA TERMINATED NORMALLY****
TOTAL RUN TIME: 0 days 0 hours 0 minutes 12 seconds 853 msec
