                         Program Version 4.2.0 -  RELEASE  -
|  1> #
|  2> # 13_Al CCSD(T)/aug-cc-pV5Z
|  3> #
|  4> ! CCSD(T) aug-cc-pV5Z tightscf
|  5>
|  6> *xyz 0 2
|  7>  Al 0.0 0.0 0.0
|  8> *
|  9>
| 10> %maxcore 5000
| 11>
| 12> %pal
| 13> nprocs 3
| 14> end
| 15>
| 16>
| 17>                          ****END OF INPUT****

CARTESIAN COORDINATES (ANGSTROEM)
---------------------------------
  Al     0.000000    0.000000    0.000000

 Total Charge           Charge          ....    0
 Multiplicity           Mult            ....    2
 Number of Electrons    NEL             ....   13
 Basis Dimension        Dim             ....  131

ORBITAL ENERGIES
----------------
                 SPIN UP ORBITALS
  NO   OCC          E(Eh)            E(eV)
   0   1.0000     -58.500988     -1591.8928
   1   1.0000      -4.910734      -133.6279
   2   1.0000      -3.225232       -87.7630
   3   1.0000      -3.217875       -87.5628
   4   1.0000      -3.217875       -87.5628
   5   1.0000      -0.425533       -11.5794
   6   1.0000      -0.218519        -5.9462
   7   0.0000       0.009253         0.2518
   8   0.0000       0.009253         0.2518
   9   0.0000       0.032835         0.8935
  10   0.0000       0.034054         0.9266
  11   0.0000       0.044520         1.2115

                 SPIN DOWN ORBITALS
  NO   OCC          E(Eh)            E(eV)
   0   1.0000     -58.497876     -1591.8081
   1   1.0000      -4.907329      -133.5352
   2   1.0000      -3.216340       -87.5211
   3   1.0000      -3.216340       -87.5211
   4   1.0000      -3.206995       -87.2668
   5   1.0000      -0.363374        -9.8879
   6   0.0000       0.012909         0.3513
   7   0.0000       0.012909         0.3513
   8   0.0000       0.025059         0.6819
   9   0.0000       0.036678         0.9981
  10   0.0000       0.047701         1.2980

E(0)                                       ...   -241.880761270
E(0)                                       ...   -241.880761270
E(CORR)                                    ...     -0.052456853
E(TOT)                                     ...   -241.933218122
E(CCSD(T))                                 ...   -241.934537009

MULLIKEN ATOMIC CHARGES AND SPIN DENSITIES
------------------------------------------
   0 Al:    0.000000    1.000000
Sum of atomic charges       :    0.0000000

LOEWDIN ATOMIC CHARGES AND SPIN DENSITIES
-----------------------------------------
   0 Al:    0.000000    1.000000

FINAL SINGLE POINT ENERGY      -241.934537008828

DIPOLE MOMENT
-------------
                                X             Y             Z
Electronic contribution:     -0.00000       0.00000      -0.00000
Nuclear contribution   :      0.00000       0.00000       0.00000
                        -----------------------------------------
Total Dipole Moment    :     -0.00000       0.00000      -0.00000
                        -----------------------------------------
Magnitude (a.u.)       :      0.00000
Magnitude (Debye)      :      0.00000

Rotational constants in cm-1:     0.000000     0.000000     0.000000
Rotational constants in MHz :     0.000000     0.000000     0.000000

                             ****ORCA TERMINATED NORMALLY****
TOTAL RUN TIME: 0 days 0 hours 1 minutes 24 seconds 42 msec
