                         Program Version 4.2.0 -  RELEASE  -
|  1> #
|  2> # 14_Si CCSD(T)/aug-cc-pV5Z
|  3> #
|  4> ! CCSD(T) aug-cc-pV5Z tightscf
|  5>
|  6> *xyz 0 3
|  7>  Si 0.0 0.0 0.0
|  8> *
|  9>
| 10> %maxcore 5000
| 11>
| 12> %pal
| 13> nprocs 6
| 14> end
| 15>
| 16>
| 17>                          ****END OF INPUT****

CARTESIAN COORDINATES (ANGSTROEM)
---------------------------------
  Si     0.000000    0.000000    0.000000

 Total Charge           Charge          ....    0
 Multiplicity           Mult            ....    3
 Number of Electrons    NEL             ....   14
 Basis Dimension        Dim             ....  131

ORBITAL ENERGIES
----------------
                 SPIN UP ORBITALS
  NO   OCC          E(Eh)            E(eV)
   0   1.0000     -68.816337     -1872.5877
   1   1.0000      -6.160634      -167.6394
   2   1.0000      -4.268958      -116.1642
   3   1.0000      -4.268958      -116.1642
   4   1.0000      -4.258127      -115.8695
   5   1.0000      -0.619870       -16.8675
   6   1.0000      -0.301406        -8.2017
   7   1.0000      -0.301406        -8.2017
   8   0.0000      -0.010106        -0.2750
   9   0.0000       0.046966         1.2780
  10   0.0000       0.050819         1.3828
  11   0.0000       0.050819         1.3828
  12   0.0000       0.058459         1.5908

                 SPIN DOWN ORBITALS
  NO   OCC          E(Eh)            E(eV)
   0   1.0000     -68.806012     -1872.3068
   1   1.0000      -6.149768      -167.3437
   2   1.0000      -4.253115      -115.7331
   3   1.0000      -4.239869      -115.3727
   4   1.0000      -4.239869      -115.3727
   5   1.0000      -0.462779       -12.5929
   6   0.0000       0.005053         0.1375
   7   0.0000       0.030708         0.8356
   8   0.0000       0.030708         0.8356
   9   0.0000       0.053184         1.4472
  10   0.0000       0.063364         1.7242

E(0)                                       ...   -288.858836830
E(0)                                       ...   -288.858836830
E(CORR)                                    ...     -0.077307233
E(TOT)                                     ...   -288.936144063
E(CCSD(T))                                 ...   -288.939106019

MULLIKEN ATOMIC CHARGES AND SPIN DENSITIES
------------------------------------------
   0 Si:    0.000000    2.000000
Sum of atomic charges       :    0.0000000

LOEWDIN ATOMIC CHARGES AND SPIN DENSITIES
-----------------------------------------
   0 Si:    0.000000    2.000000

FINAL SINGLE POINT ENERGY      -288.939106018889

DIPOLE MOMENT
-------------
                                X             Y             Z
Electronic contribution:      0.00000      -0.00000       0.00000
Nuclear contribution   :      0.00000       0.00000       0.00000
                        -----------------------------------------
Total Dipole Moment    :      0.00000      -0.00000       0.00000
                        -----------------------------------------
Magnitude (a.u.)       :      0.00000
Magnitude (Debye)      :      0.00000

Rotational constants in cm-1:     0.000000     0.000000     0.000000
Rotational constants in MHz :     0.000000     0.000000     0.000000

                             ****ORCA TERMINATED NORMALLY****
TOTAL RUN TIME: 0 days 0 hours 3 minutes 3 seconds 647 msec
