                         Program Version 4.2.0 -  RELEASE  -
|  1> #
|  2> # 15_P CCSD(T)/aug-cc-pV5Z
|  3> #
|  4> ! CCSD(T) aug-cc-pV5Z tightscf
|  5>
|  6> *xyz 0 4
|  7>  P 0.0 0.0 0.0
|  8> *
|  9>
| 10> %maxcore 5000
| 11>
| 12> %pal
| 13> nprocs 10
| 14> end
| 15>
| 16>
| 17>                          ****END OF INPUT****

CARTESIAN COORDINATES (ANGSTROEM)
---------------------------------
  P      0.000000    0.000000    0.000000

 Total Charge           Charge          ....    0
 Multiplicity           Mult            ....    4
 Number of Electrons    NEL             ....   15
 Basis Dimension        Dim             ....  131

ORBITAL ENERGIES
----------------
                 SPIN UP ORBITALS
  NO   OCC          E(Eh)            E(eV)
   0   1.0000     -79.980298     -2176.3746
   1   1.0000      -7.521692      -204.6757
   2   1.0000      -5.421392      -147.5236
   3   1.0000      -5.421392      -147.5236
   4   1.0000      -5.421392      -147.5236
   5   1.0000      -0.836227       -22.7549
   6   1.0000      -0.392107       -10.6698
   7   1.0000      -0.392107       -10.6698
   8   1.0000      -0.392107       -10.6698
   9   0.0000       0.059048         1.6068
  10   0.0000       0.064043         1.7427
  11   0.0000       0.064043         1.7427
  12   0.0000       0.064043         1.7427
  13   0.0000       0.165094         4.4924

                 SPIN DOWN ORBITALS
  NO   OCC          E(Eh)            E(eV)
   0   1.0000     -79.958562     -2175.7831
   1   1.0000      -7.499929      -204.0834
   2   1.0000      -5.380002      -146.3973
   3   1.0000      -5.380002      -146.3973
   4   1.0000      -5.380002      -146.3973
   5   1.0000      -0.556219       -15.1355
   6   0.0000       0.027714         0.7541
   7   0.0000       0.027714         0.7541
   8   0.0000       0.027714         0.7541
   9   0.0000       0.069218         1.8835
  10   0.0000       0.095578         2.6008

E(0)                                       ...   -340.719174240
E(0)                                       ...   -340.719174240
E(CORR)                                    ...     -0.106387811
E(TOT)                                     ...   -340.825562051
E(CCSD(T))                                 ...   -340.830363617

MULLIKEN ATOMIC CHARGES AND SPIN DENSITIES
------------------------------------------
   0 P :   -0.000000    3.000000
Sum of atomic charges       :   -0.0000000

LOEWDIN ATOMIC CHARGES AND SPIN DENSITIES
-----------------------------------------
   0 P :   -0.000000    3.000000

FINAL SINGLE POINT ENERGY      -340.830363617151

DIPOLE MOMENT
-------------
                                X             Y             Z
Electronic contribution:     -0.00000       0.00000       0.00000
Nuclear contribution   :      0.00000       0.00000       0.00000
                        -----------------------------------------
Total Dipole Moment    :     -0.00000       0.00000       0.00000
                        -----------------------------------------
Magnitude (a.u.)       :      0.00000
Magnitude (Debye)      :      0.00000

Rotational constants in cm-1:     0.000000     0.000000     0.000000
Rotational constants in MHz :     0.000000     0.000000     0.000000

                             ****ORCA TERMINATED NORMALLY****
TOTAL RUN TIME: 0 days 0 hours 0 minutes 39 seconds 730 msec
