                         Program Version 4.2.0 -  RELEASE  -
|  1> #
|  2> # 16_S CCSD(T)/aug-cc-pV5Z
|  3> #
|  4> ! CCSD(T) aug-cc-pV5Z tightscf
|  5>
|  6> *xyz 0 3
|  7>  S 0.0 0.0 0.0
|  8> *
|  9>
| 10> %maxcore 5000
| 11>
| 12> %pal
| 13> nprocs 15
| 14> end
| 15>
| 16>
| 17>                          ****END OF INPUT****

CARTESIAN COORDINATES (ANGSTROEM)
---------------------------------
  S      0.000000    0.000000    0.000000

 Total Charge           Charge          ....    0
 Multiplicity           Mult            ....    3
 Number of Electrons    NEL             ....   16
 Basis Dimension        Dim             ....  131

ORBITAL ENERGIES
----------------
                 SPIN UP ORBITALS
  NO   OCC          E(Eh)            E(eV)
   0   1.0000     -92.013212     -2503.8068
   1   1.0000      -9.012709      -245.2483
   2   1.0000      -6.705929      -182.4776
   3   1.0000      -6.705929      -182.4776
   4   1.0000      -6.685457      -181.9205
   5   1.0000      -0.989835       -26.9348
   6   1.0000      -0.486989       -13.2516
   7   1.0000      -0.486989       -13.2516
   8   1.0000      -0.415561       -11.3080
   9   0.0000       0.070628         1.9219
  10   0.0000       0.070628         1.9219
  11   0.0000       0.074228         2.0198
  12   0.0000       0.076249         2.0748
  13   0.0000       0.201188         5.4746

                 SPIN DOWN ORBITALS
  NO   OCC          E(Eh)            E(eV)
   0   1.0000     -91.994043     -2503.2852
   1   1.0000      -8.994221      -244.7452
   2   1.0000      -6.675394      -181.6467
   3   1.0000      -6.659027      -181.2013
   4   1.0000      -6.659027      -181.2013
   5   1.0000      -0.773923       -21.0595
   6   1.0000      -0.379542       -10.3279
   7   0.0000       0.001030         0.0280
   8   0.0000       0.001030         0.0280
   9   0.0000       0.077217         2.1012
  10   0.0000       0.081247         2.2108
  11   0.0000       0.090005         2.4492

E(0)                                       ...   -397.513223500
E(0)                                       ...   -397.513223500
E(CORR)                                    ...     -0.152498002
E(TOT)                                     ...   -397.665721502
E(CCSD(T))                                 ...   -397.671895924

MULLIKEN ATOMIC CHARGES AND SPIN DENSITIES
------------------------------------------
   0 S :    0.000000    2.000000
Sum of atomic charges       :    0.0000000

LOEWDIN ATOMIC CHARGES AND SPIN DENSITIES
-----------------------------------------
   0 S :    0.000000    2.000000

FINAL SINGLE POINT ENERGY      -397.671895923992

DIPOLE MOMENT
-------------
                                X             Y             Z
Electronic contribution:      0.00000      -0.00000      -0.00000
Nuclear contribution   :      0.00000       0.00000       0.00000
                        -----------------------------------------
Total Dipole Moment    :      0.00000      -0.00000      -0.00000
                        -----------------------------------------
Magnitude (a.u.)       :      0.00000
Magnitude (Debye)      :      0.00000

Rotational constants in cm-1:     0.000000     0.000000     0.000000
Rotational constants in MHz :     0.000000     0.000000     0.000000

                             ****ORCA TERMINATED NORMALLY****
TOTAL RUN TIME: 0 days 0 hours 0 minutes 53 seconds 543 msec
