                         Program Version 4.2.0 -  RELEASE  -
|  1> #
|  2> # 17_Cl CCSD(T)/aug-cc-pV5Z
|  3> #
|  4> ! CCSD(T) aug-cc-pV5Z tightscf
|  5>
|  6> *xyz 0 2
|  7>  Cl 0.0 0.0 0.0
|  8> *
|  9>
| 10> %maxcore 5000
| 11>
| 12> %pal
| 13> nprocs 21
| 14> end
| 15>
| 16>
| 17>                          ****END OF INPUT****

CARTESIAN COORDINATES (ANGSTROEM)
---------------------------------
  Cl     0.000000    0.000000    0.000000

 Total Charge           Charge          ....    0
 Multiplicity           Mult            ....    2
 Number of Electrons    NEL             ....   17
 Basis Dimension        Dim             ....  131

ORBITAL ENERGIES
----------------
                 SPIN UP ORBITALS
  NO   OCC          E(Eh)            E(eV)
   0   1.0000    -104.889538     -2854.1894
   1   1.0000     -10.612227      -288.7734
   2   1.0000      -8.098000      -220.3578
   3   1.0000      -8.073723      -219.6972
   4   1.0000      -8.073723      -219.6972
   5   1.0000      -1.136096       -30.9148
   6   1.0000      -0.581779       -15.8310
   7   1.0000      -0.502522       -13.6743
   8   1.0000      -0.502522       -13.6743
   9   0.0000       0.081271         2.2115
  10   0.0000       0.086859         2.3635
  11   0.0000       0.086859         2.3635
  12   0.0000       0.086909         2.3649
  13   0.0000       0.254220         6.9177

                 SPIN DOWN ORBITALS
  NO   OCC          E(Eh)            E(eV)
   0   1.0000    -104.877737     -2853.8683
   1   1.0000     -10.601118      -288.4711
   2   1.0000      -8.067706      -219.5334
   3   1.0000      -8.067706      -219.5334
   4   1.0000      -8.048187      -219.0023
   5   1.0000      -1.014443       -27.6044
   6   1.0000      -0.480913       -13.0863
   7   1.0000      -0.480913       -13.0863
   8   0.0000      -0.040836        -1.1112
   9   0.0000       0.087337         2.3765
  10   0.0000       0.087337         2.3765
  11   0.0000       0.090392         2.4597
  12   0.0000       0.095125         2.5885

E(0)                                       ...   -459.489762892
E(0)                                       ...   -459.489762892
E(CORR)                                    ...     -0.203232690
E(TOT)                                     ...   -459.692995582
E(CCSD(T))                                 ...   -459.700787264

MULLIKEN ATOMIC CHARGES AND SPIN DENSITIES
------------------------------------------
   0 Cl:    0.000000    1.000000
Sum of atomic charges       :    0.0000000

LOEWDIN ATOMIC CHARGES AND SPIN DENSITIES
-----------------------------------------
   0 Cl:    0.000000    1.000000

FINAL SINGLE POINT ENERGY      -459.700787263970

DIPOLE MOMENT
-------------
                                X             Y             Z
Electronic contribution:     -0.00000      -0.00000       0.00000
Nuclear contribution   :      0.00000       0.00000       0.00000
                        -----------------------------------------
Total Dipole Moment    :     -0.00000      -0.00000       0.00000
                        -----------------------------------------
Magnitude (a.u.)       :      0.00000
Magnitude (Debye)      :      0.00000

Rotational constants in cm-1:     0.000000     0.000000     0.000000
Rotational constants in MHz :     0.000000     0.000000     0.000000

                             ****ORCA TERMINATED NORMALLY****
TOTAL RUN TIME: 0 days 0 hours 1 minutes 7 seconds 152 msec
