                         Program Version 4.2.0 -  RELEASE  -
|  1> #
|  2> # 22_Ti CCSD(T)/aug-cc-pV5Z
|  3> #
|  4> ! CCSD(T) aug-cc-pV5Z tightscf
|  5>
|  6> *xyz 0 3
|  7>  Ti 0.0 0.0 0.0
|  8> *
|  9>
| 10> %maxcore 5000
| 11>
| 12> %pal
| 13> nprocs 24
| 14> end
| 15>
| 16>
| 17>                          ****END OF INPUT****

CARTESIAN COORDINATES (ANGSTROEM)
---------------------------------
  Ti     0.000000    0.000000    0.000000

 Total Charge           Charge          ....    0
 Multiplicity           Mult            ....    3
 Number of Electrons    NEL             ....   22
 Basis Dimension        Dim             ....  202

ORBITAL ENERGIES
----------------
                 SPIN UP ORBITALS
  NO   OCC          E(Eh)            E(eV)
   0   1.0000    -183.270412     -4987.0414
   1   1.0000     -21.437631      -583.3476
   2   1.0000     -17.805630      -484.5158
   3   1.0000     -17.805630      -484.5158
   4   1.0000     -17.805630      -484.5158
   5   1.0000      -2.936236       -79.8991
   6   1.0000      -1.874248       -51.0009
   7   1.0000      -1.874247       -51.0009
   8   1.0000      -1.874247       -51.0008
   9   1.0000      -0.449632       -12.2351
  10   1.0000      -0.449632       -12.2351
  11   1.0000      -0.231995        -6.3129
  12   0.0000       0.013937         0.3792
  13   0.0000       0.013938         0.3793
  14   0.0000       0.013938         0.3793
  15   0.0000       0.020837         0.5670
  16   0.0000       0.034217         0.9311

                 SPIN DOWN ORBITALS
  NO   OCC          E(Eh)            E(eV)
   0   1.0000    -183.271111     -4987.0605
   1   1.0000     -21.404549      -582.4474
   2   1.0000     -17.773158      -483.6322
   3   1.0000     -17.773158      -483.6322
   4   1.0000     -17.773157      -483.6322
   5   1.0000      -2.808066       -76.4114
   6   1.0000      -1.715709       -46.6868
   7   1.0000      -1.715709       -46.6868
   8   1.0000      -1.715708       -46.6868
   9   1.0000      -0.210034        -5.7153
  10   0.0000       0.014414         0.3922
  11   0.0000       0.014415         0.3922
  12   0.0000       0.014415         0.3923
  13   0.0000       0.021771         0.5924
  14   0.0000       0.034176         0.9300

E(0)                                       ...   -848.414816868
E(0)                                       ...   -848.414816868
E(CORR)                                    ...     -0.402057202
E(TOT)                                     ...   -848.816874070
E(CCSD(T))                                 ...   -848.830728919

MULLIKEN ATOMIC CHARGES AND SPIN DENSITIES
------------------------------------------
   0 Ti:    0.000000    2.000000
Sum of atomic charges       :    0.0000000

LOEWDIN ATOMIC CHARGES AND SPIN DENSITIES
-----------------------------------------
   0 Ti:   -0.000000    2.000000

FINAL SINGLE POINT ENERGY      -848.830728919071

DIPOLE MOMENT
-------------
                                X             Y             Z
Electronic contribution:      0.00000       0.00000      -0.00000
Nuclear contribution   :      0.00000       0.00000       0.00000
                        -----------------------------------------
Total Dipole Moment    :      0.00000       0.00000      -0.00000
                        -----------------------------------------
Magnitude (a.u.)       :      0.00000
Magnitude (Debye)      :      0.00000

Rotational constants in cm-1:     0.000000     0.000000     0.000000
Rotational constants in MHz :     0.000000     0.000000     0.000000

                             ****ORCA TERMINATED NORMALLY****
TOTAL RUN TIME: 0 days 1 hours 23 minutes 8 seconds 246 msec
