                         Program Version 4.2.0 -  RELEASE  -
|  1> #
|  2> # 27_Co CCSD(T)/aug-cc-pV5Z
|  3> #
|  4> ! CCSD(T) aug-cc-pV5Z tightscf
|  5>
|  6> *xyz 0 4
|  7>  Co 0.0 0.0 0.0
|  8> *
|  9>
| 10> %maxcore 5000
| 11>
| 12> %pal
| 13> nprocs 24
| 14> end
| 15>
| 16>
| 17>                          ****END OF INPUT****

CARTESIAN COORDINATES (ANGSTROEM)
---------------------------------
  Co     0.000000    0.000000    0.000000

 Total Charge           Charge          ....    0
 Multiplicity           Mult            ....    4
 Number of Electrons    NEL             ....   27
 Basis Dimension        Dim             ....  202

ORBITAL ENERGIES
----------------
                 SPIN UP ORBITALS
  NO   OCC          E(Eh)            E(eV)
   0   1.0000    -282.855339     -7696.8851
   1   1.0000     -34.665696      -943.3015
   2   1.0000     -29.919980      -814.1640
   3   1.0000     -29.919980      -814.1640
   4   1.0000     -29.919980      -814.1640
   5   1.0000      -4.393346      -119.5490
   6   1.0000      -2.907666       -79.1216
   7   1.0000      -2.907666       -79.1216
   8   1.0000      -2.907666       -79.1216
   9   1.0000      -0.499425       -13.5900
  10   1.0000      -0.499425       -13.5900
  11   1.0000      -0.446250       -12.1431
  12   1.0000      -0.446250       -12.1431
  13   1.0000      -0.446250       -12.1431
  14   1.0000      -0.232349        -6.3225
  15   0.0000       0.020821         0.5666
  16   0.0000       0.020821         0.5666
  17   0.0000       0.020821         0.5666
  18   0.0000       0.026520         0.7217
  19   0.0000       0.066122         1.7993

                 SPIN DOWN ORBITALS
  NO   OCC          E(Eh)            E(eV)
   0   1.0000    -282.853314     -7696.8300
   1   1.0000     -34.601306      -941.5494
   2   1.0000     -29.859490      -812.5180
   3   1.0000     -29.859490      -812.5180
   4   1.0000     -29.859490      -812.5180
   5   1.0000      -4.210301      -114.5681
   6   1.0000      -2.692930       -73.2784
   7   1.0000      -2.692930       -73.2784
   8   1.0000      -2.692930       -73.2784
   9   1.0000      -0.379773       -10.3341
  10   1.0000      -0.379773       -10.3341
  11   1.0000      -0.379773       -10.3341
  12   0.0000       0.006143         0.1671
  13   0.0000       0.028367         0.7719
  14   0.0000       0.028367         0.7719
  15   0.0000       0.028367         0.7719
  16   0.0000       0.047924         1.3041

E(0)                                       ...  -1381.367608530
E(0)                                       ...  -1381.367608530
E(CORR)                                    ...     -0.762025166
E(TOT)                                     ...  -1382.129633696
E(CCSD(T))                                 ...  -1382.156660675

MULLIKEN ATOMIC CHARGES AND SPIN DENSITIES
------------------------------------------
   0 Co:    0.000000    3.000000
Sum of atomic charges       :    0.0000000

LOEWDIN ATOMIC CHARGES AND SPIN DENSITIES
-----------------------------------------
   0 Co:   -0.000000    3.000000

FINAL SINGLE POINT ENERGY     -1382.156660674999

DIPOLE MOMENT
-------------
                                X             Y             Z
Electronic contribution:      0.00000       0.00000       0.00000
Nuclear contribution   :      0.00000       0.00000       0.00000
                        -----------------------------------------
Total Dipole Moment    :      0.00000       0.00000       0.00000
                        -----------------------------------------
Magnitude (a.u.)       :      0.00000
Magnitude (Debye)      :      0.00000

Rotational constants in cm-1:     0.000000     0.000000     0.000000
Rotational constants in MHz :     0.000000     0.000000     0.000000

                             ****ORCA TERMINATED NORMALLY****
TOTAL RUN TIME: 0 days 1 hours 4 minutes 51 seconds 813 msec
