                         Program Version 4.2.0 -  RELEASE  -
|  1> #
|  2> # 28_Ni CCSD(T)/aug-cc-pV5Z
|  3> #
|  4> ! CCSD(T) aug-cc-pV5Z tightscf slowconv
|  5>
|  6> *xyz 0 3
|  7>  Ni 0.0 0.0 0.0
|  8> *
|  9>
| 10> %maxcore 5000
| 11>
| 12> %pal
| 13> nprocs 24
| 14> end
| 15>
| 16>
| 17>                          ****END OF INPUT****

CARTESIAN COORDINATES (ANGSTROEM)
---------------------------------
  Ni     0.000000    0.000000    0.000000

 Total Charge           Charge          ....    0
 Multiplicity           Mult            ....    3
 Number of Electrons    NEL             ....   28
 Basis Dimension        Dim             ....  202

ORBITAL ENERGIES
----------------
                 SPIN UP ORBITALS
  NO   OCC          E(Eh)            E(eV)
   0   1.0000    -305.398151     -8310.3062
   1   1.0000     -37.690153     -1025.6012
   2   1.0000     -32.741086      -890.9303
   3   1.0000     -32.705847      -889.9713
   4   1.0000     -32.703954      -889.9198
   5   1.0000      -4.705839      -128.0524
   6   1.0000      -3.171383       -86.2977
   7   1.0000      -3.094247       -84.1987
   8   1.0000      -3.090159       -84.0875
   9   1.0000      -0.549032       -14.9399
  10   1.0000      -0.483563       -13.1584
  11   1.0000      -0.482065       -13.1176
  12   1.0000      -0.453366       -12.3367
  13   1.0000      -0.453343       -12.3361
  14   1.0000      -0.236250        -6.4287
  15   0.0000       0.020080         0.5464
  16   0.0000       0.021545         0.5863
  17   0.0000       0.021617         0.5882
  18   0.0000       0.027116         0.7379
  19   0.0000       0.068655         1.8682

                 SPIN DOWN ORBITALS
  NO   OCC          E(Eh)            E(eV)
   0   1.0000    -305.396059     -8310.2493
   1   1.0000     -37.653688     -1024.6090
   2   1.0000     -32.684326      -889.3857
   3   1.0000     -32.684212      -889.3826
   4   1.0000     -32.682367      -889.3324
   5   1.0000      -4.605685      -125.3271
   6   1.0000      -3.025046       -82.3157
   7   1.0000      -3.022141       -82.2366
   8   1.0000      -2.966680       -80.7275
   9   1.0000      -0.459411       -12.5012
  10   1.0000      -0.456443       -12.4205
  11   1.0000      -0.401330       -10.9207
  12   1.0000      -0.401291       -10.9197
  13   0.0000       0.005226         0.1422
  14   0.0000       0.027715         0.7542
  15   0.0000       0.027997         0.7618
  16   0.0000       0.028014         0.7623
  17   0.0000       0.047308         1.2873

E(0)                                       ...  -1506.830787800
E(0)                                       ...  -1506.830787800
E(CORR)                                    ...     -0.853796211
E(TOT)                                     ...  -1507.684584011
E(CCSD(T))                                 ...  -1507.715328162

MULLIKEN ATOMIC CHARGES AND SPIN DENSITIES
------------------------------------------
   0 Ni:   -0.000000    2.000000
Sum of atomic charges       :   -0.0000000

LOEWDIN ATOMIC CHARGES AND SPIN DENSITIES
-----------------------------------------
   0 Ni:   -0.000000    2.000000

FINAL SINGLE POINT ENERGY     -1507.715328162346

DIPOLE MOMENT
-------------
                                X             Y             Z
Electronic contribution:      0.00000       0.00000      -0.00000
Nuclear contribution   :      0.00000       0.00000       0.00000
                        -----------------------------------------
Total Dipole Moment    :      0.00000       0.00000      -0.00000
                        -----------------------------------------
Magnitude (a.u.)       :      0.00000
Magnitude (Debye)      :      0.00000

Rotational constants in cm-1:     0.000000     0.000000     0.000000
Rotational constants in MHz :     0.000000     0.000000     0.000000

                             ****ORCA TERMINATED NORMALLY****
TOTAL RUN TIME: 0 days 1 hours 51 minutes 40 seconds 787 msec
