                         Program Version 4.2.0 -  RELEASE  -
|  1> #
|  2> # 29_Cu CCSD(T)/aug-cc-pV5Z
|  3> #
|  4> ! CCSD(T) aug-cc-pV5Z tightscf
|  5>
|  6> *xyz 0 2
|  7>  Cu 0.0 0.0 0.0
|  8> *
|  9>
| 10> %maxcore 5000
| 11>
| 12> %pal
| 13> nprocs 24
| 14> end
| 15>
| 16>
| 17>                          ****END OF INPUT****

CARTESIAN COORDINATES (ANGSTROEM)
---------------------------------
  Cu     0.000000    0.000000    0.000000

 Total Charge           Charge          ....    0
 Multiplicity           Mult            ....    2
 Number of Electrons    NEL             ....   29
 Basis Dimension        Dim             ....  202

ORBITAL ENERGIES
----------------
                 SPIN UP ORBITALS
  NO   OCC          E(Eh)            E(eV)
   0   1.0000    -328.794574     -8946.9552
   1   1.0000     -40.818816     -1110.7365
   2   1.0000     -35.616886      -969.1847
   3   1.0000     -35.616886      -969.1847
   4   1.0000     -35.616886      -969.1847
   5   1.0000      -5.012416      -136.3948
   6   1.0000      -3.322220       -90.4022
   7   1.0000      -3.322220       -90.4022
   8   1.0000      -3.322220       -90.4022
   9   1.0000      -0.489049       -13.3077
  10   1.0000      -0.489049       -13.3077
  11   1.0000      -0.489049       -13.3077
  12   1.0000      -0.489049       -13.3077
  13   1.0000      -0.489049       -13.3077
  14   1.0000      -0.239629        -6.5206
  15   0.0000       0.022032         0.5995
  16   0.0000       0.022032         0.5995
  17   0.0000       0.022032         0.5995
  18   0.0000       0.028850         0.7850
  19   0.0000       0.074420         2.0251

                 SPIN DOWN ORBITALS
  NO   OCC          E(Eh)            E(eV)
   0   1.0000    -328.792726     -8946.9049
   1   1.0000     -40.819556     -1110.7566
   2   1.0000     -35.619432      -969.2540
   3   1.0000     -35.619432      -969.2540
   4   1.0000     -35.619432      -969.2540
   5   1.0000      -5.011665      -136.3743
   6   1.0000      -3.327412       -90.5435
   7   1.0000      -3.327412       -90.5435
   8   1.0000      -3.327412       -90.5435
   9   1.0000      -0.493300       -13.4234
  10   1.0000      -0.493300       -13.4234
  11   1.0000      -0.493300       -13.4234
  12   1.0000      -0.493300       -13.4234
  13   1.0000      -0.493300       -13.4234
  14   0.0000       0.004766         0.1297
  15   0.0000       0.028795         0.7835
  16   0.0000       0.028795         0.7835
  17   0.0000       0.028795         0.7835
  18   0.0000       0.048886         1.3303

E(0)                                       ...  -1638.964441054
E(0)                                       ...  -1638.964441054
E(CORR)                                    ...     -0.943054876
E(TOT)                                     ...  -1639.907495930
E(CCSD(T))                                 ...  -1639.940851993

MULLIKEN ATOMIC CHARGES AND SPIN DENSITIES
------------------------------------------
   0 Cu:    0.000000    1.000000
Sum of atomic charges       :    0.0000000

LOEWDIN ATOMIC CHARGES AND SPIN DENSITIES
-----------------------------------------
   0 Cu:    0.000000    1.000000

FINAL SINGLE POINT ENERGY     -1639.940851992558

DIPOLE MOMENT
-------------
                                X             Y             Z
Electronic contribution:     -0.00000      -0.00000       0.00000
Nuclear contribution   :      0.00000       0.00000       0.00000
                        -----------------------------------------
Total Dipole Moment    :     -0.00000      -0.00000       0.00000
                        -----------------------------------------
Magnitude (a.u.)       :      0.00000
Magnitude (Debye)      :      0.00000

Rotational constants in cm-1:     0.000000     0.000000     0.000000
Rotational constants in MHz :     0.000000     0.000000     0.000000

                             ****ORCA TERMINATED NORMALLY****
TOTAL RUN TIME: 0 days 0 hours 54 minutes 17 seconds 652 msec
