                         Program Version 4.2.0 -  RELEASE  -
|  1> #
|  2> # 30_Zn CCSD(T)/aug-cc-pV5Z
|  3> #
|  4> ! CCSD(T) aug-cc-pV5Z tightscf
|  5>
|  6> *xyz 0 1
|  7>  Zn 0.0 0.0 0.0
|  8> *
|  9>
| 10> %maxcore 5000
| 11>
| 12> %pal
| 13> nprocs 24
| 14> end
| 15>
| 16>
| 17>                          ****END OF INPUT****

CARTESIAN COORDINATES (ANGSTROEM)
---------------------------------
  Zn     0.000000    0.000000    0.000000

 Total Charge           Charge          ....    0
 Multiplicity           Mult            ....    1
 Number of Electrons    NEL             ....   30
 Basis Dimension        Dim             ....  202

ORBITAL ENERGIES
----------------

  NO   OCC          E(Eh)            E(eV)
   0   2.0000    -353.304621     -9613.9075
   1   2.0000     -44.361742     -1207.1444
   2   2.0000     -38.924830     -1059.1985
   3   2.0000     -38.924830     -1059.1985
   4   2.0000     -38.924830     -1059.1985
   5   2.0000      -5.637826      -153.4130
   6   2.0000      -3.839367      -104.4745
   7   2.0000      -3.839367      -104.4745
   8   2.0000      -3.839367      -104.4745
   9   2.0000      -0.782530       -21.2937
  10   2.0000      -0.782530       -21.2937
  11   2.0000      -0.782530       -21.2937
  12   2.0000      -0.782530       -21.2937
  13   2.0000      -0.782530       -21.2937
  14   2.0000      -0.292509        -7.9596
  15   0.0000       0.023557         0.6410
  16   0.0000       0.023557         0.6410
  17   0.0000       0.023557         0.6410
  18   0.0000       0.028482         0.7750
  19   0.0000       0.073482         1.9996

E(0)                                       ...  -1777.848390512
E(0)                                       ...  -1777.848390512
E(CORR)                                    ...     -0.972842089
E(TOT)                                     ...  -1778.821232601
E(CCSD(T))                                 ...  -1778.849672303

MULLIKEN ATOMIC CHARGES
-----------------------
   0 Zn:    0.000000
Sum of atomic charges:    0.0000000

LOEWDIN ATOMIC CHARGES
----------------------
   0 Zn:    0.000000

FINAL SINGLE POINT ENERGY     -1778.849672302722

DIPOLE MOMENT
-------------
                                X             Y             Z
Electronic contribution:     -0.00000      -0.00000       0.00000
Nuclear contribution   :      0.00000       0.00000       0.00000
                        -----------------------------------------
Total Dipole Moment    :     -0.00000      -0.00000       0.00000
                        -----------------------------------------
Magnitude (a.u.)       :      0.00000
Magnitude (Debye)      :      0.00000

Rotational constants in cm-1:     0.000000     0.000000     0.000000
Rotational constants in MHz :     0.000000     0.000000     0.000000

                             ****ORCA TERMINATED NORMALLY****
TOTAL RUN TIME: 0 days 0 hours 38 minutes 21 seconds 365 msec
