                         Program Version 4.2.0 -  RELEASE  -
|  1> #
|  2> # 31_Ga CCSD(T)/aug-cc-pV5Z
|  3> #
|  4> ! CCSD(T) aug-cc-pV5Z tightscf
|  5>
|  6> *xyz 0 2
|  7>  Ga 0.0 0.0 0.0
|  8> *
|  9>
| 10> %maxcore 5000
| 11>
| 12> %pal
| 13> nprocs 24
| 14> end
| 15>
| 16>
| 17>                          ****END OF INPUT****

CARTESIAN COORDINATES (ANGSTROEM)
---------------------------------
  Ga     0.000000    0.000000    0.000000

 Total Charge           Charge          ....    0
 Multiplicity           Mult            ....    2
 Number of Electrons    NEL             ....   31
 Basis Dimension        Dim             ....  140

ORBITAL ENERGIES
----------------
                 SPIN UP ORBITALS
  NO   OCC          E(Eh)            E(eV)
   0   1.0000    -378.817842    -10308.1575
   1   1.0000     -48.167104     -1310.6935
   2   1.0000     -42.493277     -1156.3009
   3   1.0000     -42.493141     -1156.2972
   4   1.0000     -42.493141     -1156.2972
   5   1.0000      -6.393941      -173.9880
   6   1.0000      -4.482282      -121.9691
   7   1.0000      -4.482279      -121.9690
   8   1.0000      -4.482279      -121.9690
   9   1.0000      -1.196187       -32.5499
  10   1.0000      -1.196187       -32.5499
  11   1.0000      -1.190649       -32.3992
  12   1.0000      -1.190649       -32.3992
  13   1.0000      -1.188957       -32.3532
  14   1.0000      -0.456178       -12.4132
  15   1.0000      -0.215795        -5.8721
  16   0.0000       0.009912         0.2697
  17   0.0000       0.009912         0.2697
  18   0.0000       0.031371         0.8537
  19   0.0000       0.031803         0.8654
  20   0.0000       0.043092         1.1726

                 SPIN DOWN ORBITALS
  NO   OCC          E(Eh)            E(eV)
   0   1.0000    -378.816729    -10308.1272
   1   1.0000     -48.167398     -1310.7015
   2   1.0000     -42.493401     -1156.3042
   3   1.0000     -42.493401     -1156.3042
   4   1.0000     -42.490673     -1156.2300
   5   1.0000      -6.392967      -173.9615
   6   1.0000      -4.483555      -122.0037
   7   1.0000      -4.483555      -122.0037
   8   1.0000      -4.473283      -121.7242
   9   1.0000      -1.197228       -32.5782
  10   1.0000      -1.197228       -32.5782
  11   1.0000      -1.189208       -32.3600
  12   1.0000      -1.189208       -32.3600
  13   1.0000      -1.186719       -32.2923
  14   1.0000      -0.394284       -10.7290
  15   0.0000       0.014164         0.3854
  16   0.0000       0.014164         0.3854
  17   0.0000       0.024517         0.6671
  18   0.0000       0.034511         0.9391
  19   0.0000       0.047517         1.2930

E(0)                                       ...  -1923.264652302
E(0)                                       ...  -1923.264652302
E(CORR)                                    ...     -0.264303761
E(TOT)                                     ...  -1923.528956064
E(CCSD(T))                                 ...  -1923.538428364

MULLIKEN ATOMIC CHARGES AND SPIN DENSITIES
------------------------------------------
   0 Ga:   -0.000000    1.000000
Sum of atomic charges       :   -0.0000000

LOEWDIN ATOMIC CHARGES AND SPIN DENSITIES
-----------------------------------------
   0 Ga:    0.000000    1.000000

FINAL SINGLE POINT ENERGY     -1923.538428364077

DIPOLE MOMENT
-------------
                                X             Y             Z
Electronic contribution:     -0.00000       0.00000       0.00000
Nuclear contribution   :      0.00000       0.00000       0.00000
                        -----------------------------------------
Total Dipole Moment    :     -0.00000       0.00000       0.00000
                        -----------------------------------------
Magnitude (a.u.)       :      0.00000
Magnitude (Debye)      :      0.00000

Rotational constants in cm-1:     0.000000     0.000000     0.000000
Rotational constants in MHz :     0.000000     0.000000     0.000000

                             ****ORCA TERMINATED NORMALLY****
TOTAL RUN TIME: 0 days 0 hours 2 minutes 7 seconds 77 msec
