                         Program Version 4.2.0 -  RELEASE  -
|  1> #
|  2> # 32_Ge CCSD(T)/aug-cc-pV5Z
|  3> #
|  4> ! CCSD(T) aug-cc-pV5Z tightscf
|  5>
|  6> *xyz 0 3
|  7>  Ge 0.0 0.0 0.0
|  8> *
|  9>
| 10> %maxcore 5000
| 11>
| 12> %pal
| 13> nprocs 24
| 14> end
| 15>
| 16>
| 17>                          ****END OF INPUT****

CARTESIAN COORDINATES (ANGSTROEM)
---------------------------------
  Ge     0.000000    0.000000    0.000000

 Total Charge           Charge          ....    0
 Multiplicity           Mult            ....    3
 Number of Electrons    NEL             ....   32
 Basis Dimension        Dim             ....  140

ORBITAL ENERGIES
----------------
                 SPIN UP ORBITALS
  NO   OCC          E(Eh)            E(eV)
   0   1.0000    -405.245565    -11027.2924
   1   1.0000     -52.149930     -1419.0717
   2   1.0000     -46.237370     -1258.1828
   3   1.0000     -46.237370     -1258.1828
   4   1.0000     -46.236504     -1258.1593
   5   1.0000      -7.193085      -195.7338
   6   1.0000      -5.165592      -140.5629
   7   1.0000      -5.165592      -140.5629
   8   1.0000      -5.164716      -140.5391
   9   1.0000      -1.640665       -44.6448
  10   1.0000      -1.638304       -44.5805
  11   1.0000      -1.638304       -44.5805
  12   1.0000      -1.631620       -44.3986
  13   1.0000      -1.631620       -44.3986
  14   1.0000      -0.629824       -17.1384
  15   1.0000      -0.291292        -7.9265
  16   1.0000      -0.291292        -7.9265
  17   0.0000      -0.012678        -0.3450
  18   0.0000       0.041302         1.1239
  19   0.0000       0.045748         1.2449
  20   0.0000       0.045748         1.2449
  21   0.0000       0.051539         1.4024

                 SPIN DOWN ORBITALS
  NO   OCC          E(Eh)            E(eV)
   0   1.0000    -405.241797    -11027.1899
   1   1.0000     -52.149200     -1419.0519
   2   1.0000     -46.236300     -1258.1537
   3   1.0000     -46.232317     -1258.0453
   4   1.0000     -46.232317     -1258.0453
   5   1.0000      -7.187212      -195.5740
   6   1.0000      -5.165694      -140.5657
   7   1.0000      -5.151503      -140.1795
   8   1.0000      -5.151503      -140.1795
   9   1.0000      -1.639351       -44.6090
  10   1.0000      -1.635605       -44.5071
  11   1.0000      -1.635605       -44.5071
  12   1.0000      -1.624861       -44.2147
  13   1.0000      -1.624861       -44.2147
  14   1.0000      -0.479136       -13.0379
  15   0.0000       0.005080         0.1382
  16   0.0000       0.028504         0.7756
  17   0.0000       0.028504         0.7756
  18   0.0000       0.047080         1.2811
  19   0.0000       0.056811         1.5459

E(0)                                       ...  -2075.364050209
E(0)                                       ...  -2075.364050209
E(CORR)                                    ...     -0.271813840
E(TOT)                                     ...  -2075.635864049
E(CCSD(T))                                 ...  -2075.644145782

MULLIKEN ATOMIC CHARGES AND SPIN DENSITIES
------------------------------------------
   0 Ge:   -0.000000    2.000000
Sum of atomic charges       :   -0.0000000

LOEWDIN ATOMIC CHARGES AND SPIN DENSITIES
-----------------------------------------
   0 Ge:    0.000000    2.000000

FINAL SINGLE POINT ENERGY     -2075.644145781916

DIPOLE MOMENT
-------------
                                X             Y             Z
Electronic contribution:      0.00000       0.00000      -0.00000
Nuclear contribution   :      0.00000       0.00000       0.00000
                        -----------------------------------------
Total Dipole Moment    :      0.00000       0.00000      -0.00000
                        -----------------------------------------
Magnitude (a.u.)       :      0.00000
Magnitude (Debye)      :      0.00000

Rotational constants in cm-1:     0.000000     0.000000     0.000000
Rotational constants in MHz :     0.000000     0.000000     0.000000

                             ****ORCA TERMINATED NORMALLY****
TOTAL RUN TIME: 0 days 0 hours 1 minutes 59 seconds 478 msec
