                         Program Version 4.2.0 -  RELEASE  -
|  1> #
|  2> # 34_Se CCSD(T)/aug-cc-pV5Z
|  3> #
|  4> ! CCSD(T) aug-cc-pV5Z tightscf
|  5>
|  6> *xyz 0 3
|  7>  Se 0.0 0.0 0.0
|  8> *
|  9>
| 10> %maxcore 5000
| 11>
| 12> %pal
| 13> nprocs 24
| 14> end
| 15>
| 16>
| 17>                          ****END OF INPUT****

CARTESIAN COORDINATES (ANGSTROEM)
---------------------------------
  Se     0.000000    0.000000    0.000000

 Total Charge           Charge          ....    0
 Multiplicity           Mult            ....    3
 Number of Electrons    NEL             ....   34
 Basis Dimension        Dim             ....  140

ORBITAL ENERGIES
----------------
                 SPIN UP ORBITALS
  NO   OCC          E(Eh)            E(eV)
   0   1.0000    -460.870639    -12540.9276
   1   1.0000     -60.670225     -1650.9208
   2   1.0000     -54.274501     -1476.8843
   3   1.0000     -54.274501     -1476.8843
   4   1.0000     -54.268200     -1476.7128
   5   1.0000      -8.938208      -243.2210
   6   1.0000      -6.676793      -181.6848
   7   1.0000      -6.676793      -181.6848
   8   1.0000      -6.657048      -181.1475
   9   1.0000      -2.663045       -72.4651
  10   1.0000      -2.663045       -72.4651
  11   1.0000      -2.649103       -72.0858
  12   1.0000      -2.649103       -72.0858
  13   1.0000      -2.644546       -71.9617
  14   1.0000      -0.936566       -25.4852
  15   1.0000      -0.448090       -12.1931
  16   1.0000      -0.448090       -12.1931
  17   1.0000      -0.384513       -10.4631
  18   0.0000       0.056917         1.5488
  19   0.0000       0.058641         1.5957
  20   0.0000       0.058641         1.5957
  21   0.0000       0.063462         1.7269
  22   0.0000       0.145076         3.9477

                 SPIN DOWN ORBITALS
  NO   OCC          E(Eh)            E(eV)
   0   1.0000    -460.863555    -12540.7349
   1   1.0000     -60.666733     -1650.8257
   2   1.0000     -54.266059     -1476.6545
   3   1.0000     -54.263833     -1476.5940
   4   1.0000     -54.263833     -1476.5940
   5   1.0000      -8.925158      -242.8659
   6   1.0000      -6.654302      -181.0728
   7   1.0000      -6.650952      -180.9816
   8   1.0000      -6.650952      -180.9816
   9   1.0000      -2.649578       -72.0987
  10   1.0000      -2.649578       -72.0987
  11   1.0000      -2.642274       -71.8999
  12   1.0000      -2.642274       -71.8999
  13   1.0000      -2.639978       -71.8374
  14   1.0000      -0.741924       -20.1888
  15   1.0000      -0.349174        -9.5015
  16   0.0000      -0.006274        -0.1707
  17   0.0000      -0.006274        -0.1707
  18   0.0000       0.062632         1.7043
  19   0.0000       0.064252         1.7484
  20   0.0000       0.072803         1.9811

E(0)                                       ...  -2399.875715478
E(0)                                       ...  -2399.875715478
E(CORR)                                    ...     -0.320622216
E(TOT)                                     ...  -2400.196337694
E(CCSD(T))                                 ...  -2400.205009192

MULLIKEN ATOMIC CHARGES AND SPIN DENSITIES
------------------------------------------
   0 Se:    0.000000    2.000000
Sum of atomic charges       :    0.0000000

LOEWDIN ATOMIC CHARGES AND SPIN DENSITIES
-----------------------------------------
   0 Se:    0.000000    2.000000

FINAL SINGLE POINT ENERGY     -2400.205009192046

DIPOLE MOMENT
-------------
                                X             Y             Z
Electronic contribution:      0.00000      -0.00000      -0.00000
Nuclear contribution   :      0.00000       0.00000       0.00000
                        -----------------------------------------
Total Dipole Moment    :      0.00000      -0.00000      -0.00000
                        -----------------------------------------
Magnitude (a.u.)       :      0.00000
Magnitude (Debye)      :      0.00000

Rotational constants in cm-1:     0.000000     0.000000     0.000000
Rotational constants in MHz :     0.000000     0.000000     0.000000

                             ****ORCA TERMINATED NORMALLY****
TOTAL RUN TIME: 0 days 0 hours 2 minutes 6 seconds 178 msec
