                         Program Version 4.2.0 -  RELEASE  -
|  1> #
|  2> # 35_Br CCSD(T)/aug-cc-pV5Z
|  3> #
|  4> ! CCSD(T) aug-cc-pV5Z tightscf
|  5>
|  6> *xyz 0 2
|  7>  Br 0.0 0.0 0.0
|  8> *
|  9>
| 10> %maxcore 5000
| 11>
| 12> %pal
| 13> nprocs 24
| 14> end
| 15>
| 16>
| 17>                          ****END OF INPUT****

CARTESIAN COORDINATES (ANGSTROEM)
---------------------------------
  Br     0.000000    0.000000    0.000000

 Total Charge           Charge          ....    0
 Multiplicity           Mult            ....    2
 Number of Electrons    NEL             ....   35
 Basis Dimension        Dim             ....  140

ORBITAL ENERGIES
----------------
                 SPIN UP ORBITALS
  NO   OCC          E(Eh)            E(eV)
   0   1.0000    -490.062146    -13335.2690
   1   1.0000     -65.200650     -1774.1999
   2   1.0000     -58.561257     -1593.5328
   3   1.0000     -58.553657     -1593.3260
   4   1.0000     -58.553657     -1593.3260
   5   1.0000      -9.875450      -268.7247
   6   1.0000      -7.498689      -204.0497
   7   1.0000      -7.475639      -203.4225
   8   1.0000      -7.475639      -203.4225
   9   1.0000      -3.233281       -87.9821
  10   1.0000      -3.227848       -87.8342
  11   1.0000      -3.227848       -87.8342
  12   1.0000      -3.211765       -87.3966
  13   1.0000      -3.211765       -87.3966
  14   1.0000      -1.047995       -28.5174
  15   1.0000      -0.523918       -14.2565
  16   1.0000      -0.454329       -12.3629
  17   1.0000      -0.454329       -12.3629
  18   0.0000       0.066231         1.8022
  19   0.0000       0.066817         1.8182
  20   0.0000       0.071095         1.9346
  21   0.0000       0.071095         1.9346
  22   0.0000       0.190856         5.1934

                 SPIN DOWN ORBITALS
  NO   OCC          E(Eh)            E(eV)
   0   1.0000    -490.057743    -13335.1491
   1   1.0000     -65.198220     -1774.1337
   2   1.0000     -58.552188     -1593.2860
   3   1.0000     -58.552188     -1593.2860
   4   1.0000     -58.549124     -1593.2027
   5   1.0000      -9.867299      -268.5029
   6   1.0000      -7.473569      -203.3662
   7   1.0000      -7.473569      -203.3662
   8   1.0000      -7.469247      -203.2486
   9   1.0000      -3.222445       -87.6872
  10   1.0000      -3.219590       -87.6095
  11   1.0000      -3.219590       -87.6095
  12   1.0000      -3.211362       -87.3856
  13   1.0000      -3.211362       -87.3856
  14   1.0000      -0.941037       -25.6069
  15   1.0000      -0.434299       -11.8179
  16   1.0000      -0.434299       -11.8179
  17   0.0000      -0.048992        -1.3331
  18   0.0000       0.069685         1.8962
  19   0.0000       0.071476         1.9450
  20   0.0000       0.071476         1.9450
  21   0.0000       0.076045         2.0693

E(0)                                       ...  -2572.448741867
E(0)                                       ...  -2572.448741867
E(CORR)                                    ...     -0.361878307
E(TOT)                                     ...  -2572.810620174
E(CCSD(T))                                 ...  -2572.820252512

MULLIKEN ATOMIC CHARGES AND SPIN DENSITIES
------------------------------------------
   0 Br:    0.000000    1.000000
Sum of atomic charges       :    0.0000000

LOEWDIN ATOMIC CHARGES AND SPIN DENSITIES
-----------------------------------------
   0 Br:    0.000000    1.000000

FINAL SINGLE POINT ENERGY     -2572.820252512352

DIPOLE MOMENT
-------------
                                X             Y             Z
Electronic contribution:     -0.00000       0.00000       0.00000
Nuclear contribution   :      0.00000       0.00000       0.00000
                        -----------------------------------------
Total Dipole Moment    :     -0.00000       0.00000       0.00000
                        -----------------------------------------
Magnitude (a.u.)       :      0.00000
Magnitude (Debye)      :      0.00000

Rotational constants in cm-1:     0.000000     0.000000     0.000000
Rotational constants in MHz :     0.000000     0.000000     0.000000

                             ****ORCA TERMINATED NORMALLY****
TOTAL RUN TIME: 0 days 0 hours 2 minutes 6 seconds 472 msec
