                         Program Version 4.2.0 -  RELEASE  -
|  1> #
|  2> # 03_Li CCSD(T)/Def2-SVP
|  3> #
|  4> ! HF Def2-SVP tightscf
|  5>
|  6> *xyz 0 2
|  7>  Li 0.0 0.0 0.0
|  8> *
|  9>
| 10> %method
| 11> NewNCore Li 2 end
| 12> end
| 13>
| 14>
| 15>                          ****END OF INPUT****

CARTESIAN COORDINATES (ANGSTROEM)
---------------------------------
  Li     0.000000    0.000000    0.000000

 Total Charge           Charge          ....    0
 Multiplicity           Mult            ....    2
 Number of Electrons    NEL             ....    3
 Basis Dimension        Dim             ....    9

ORBITAL ENERGIES
----------------
                 SPIN UP ORBITALS
  NO   OCC          E(Eh)            E(eV)
   0   1.0000      -2.487605       -67.6912
   1   1.0000      -0.192179        -5.2295
   2   0.0000       0.077720         2.1149
   3   0.0000       0.077720         2.1149
   4   0.0000       0.077720         2.1149
   5   0.0000       0.080189         2.1821
   6   0.0000       0.691479        18.8161

                 SPIN DOWN ORBITALS
  NO   OCC          E(Eh)            E(eV)
   0   1.0000      -2.469928       -67.2102
   1   0.0000       0.014450         0.3932
   2   0.0000       0.123665         3.3651
   3   0.0000       0.130697         3.5565
   4   0.0000       0.130697         3.5565
   5   0.0000       0.130697         3.5565

MULLIKEN ATOMIC CHARGES AND SPIN POPULATIONS
--------------------------------------------
   0 Li:   -0.000000    1.000000
Sum of atomic charges         :   -0.0000000

LOEWDIN ATOMIC CHARGES AND SPIN POPULATIONS
-------------------------------------------
   0 Li:   -0.000000    1.000000

FINAL SINGLE POINT ENERGY        -7.425066356114

DIPOLE MOMENT
-------------
                                X             Y             Z
Electronic contribution:     -0.00000      -0.00000      -0.00000
Nuclear contribution   :      0.00000       0.00000       0.00000
                        -----------------------------------------
Total Dipole Moment    :     -0.00000      -0.00000      -0.00000
                        -----------------------------------------
Magnitude (a.u.)       :      0.00000
Magnitude (Debye)      :      0.00000

Rotational constants in cm-1:     0.000000     0.000000     0.000000
Rotational constants in MHz :     0.000000     0.000000     0.000000

                             ****ORCA TERMINATED NORMALLY****
TOTAL RUN TIME: 0 days 0 hours 0 minutes 1 seconds 94 msec
