                         Program Version 4.2.0 -  RELEASE  -
|  1> #
|  2> # 05_B CCSD(T)/Def2-SVP
|  3> #
|  4> ! CCSD(T) Def2-SVP tightscf
|  5>
|  6> *xyz 0 2
|  7>  B 0.0 0.0 0.0
|  8> *
|  9>
| 10> %maxcore 5000
| 11>
| 12> %pal
| 13> nprocs 3
| 14> end
| 15>
| 16>
| 17>                          ****END OF INPUT****

CARTESIAN COORDINATES (ANGSTROEM)
---------------------------------
  B      0.000000    0.000000    0.000000

 Total Charge           Charge          ....    0
 Multiplicity           Mult            ....    2
 Number of Electrons    NEL             ....    5
 Basis Dimension        Dim             ....   14

ORBITAL ENERGIES
----------------
                 SPIN UP ORBITALS
  NO   OCC          E(Eh)            E(eV)
   0   1.0000      -7.700987      -209.5545
   1   1.0000      -0.535772       -14.5791
   2   1.0000      -0.320449        -8.7199
   3   0.0000       0.050504         1.3743
   4   0.0000       0.050504         1.3743
   5   0.0000       0.322025         8.7628
   6   0.0000       0.423202        11.5159
   7   0.0000       0.491824        13.3832

                 SPIN DOWN ORBITALS
  NO   OCC          E(Eh)            E(eV)
   0   1.0000      -7.684015      -209.0927
   1   1.0000      -0.436894       -11.8885
   2   0.0000       0.065403         1.7797
   3   0.0000       0.065403         1.7797
   4   0.0000       0.110123         2.9966
   5   0.0000       0.347656         9.4602
   6   0.0000       0.504724        13.7342

E(0)                                       ...    -24.500554824
E(0)                                       ...    -24.500554824
E(CORR)                                    ...     -0.056899186
E(TOT)                                     ...    -24.557454010
E(CCSD(T))                                 ...    -24.558302513

MULLIKEN ATOMIC CHARGES AND SPIN DENSITIES
------------------------------------------
   0 B :    0.000000    1.000000
Sum of atomic charges       :    0.0000000

LOEWDIN ATOMIC CHARGES AND SPIN DENSITIES
-----------------------------------------
   0 B :   -0.000000    1.000000

FINAL SINGLE POINT ENERGY       -24.558302512655

DIPOLE MOMENT
-------------
                                X             Y             Z
Electronic contribution:      0.00000       0.00000       0.00000
Nuclear contribution   :      0.00000       0.00000       0.00000
                        -----------------------------------------
Total Dipole Moment    :      0.00000       0.00000       0.00000
                        -----------------------------------------
Magnitude (a.u.)       :      0.00000
Magnitude (Debye)      :      0.00000

Rotational constants in cm-1:     0.000000     0.000000     0.000000
Rotational constants in MHz :     0.000000     0.000000     0.000000

                             ****ORCA TERMINATED NORMALLY****
TOTAL RUN TIME: 0 days 0 hours 0 minutes 3 seconds 961 msec
