                         Program Version 4.2.0 -  RELEASE  -
|  1> #
|  2> # 06_C CCSD(T)/Def2-SVP
|  3> #
|  4> ! CCSD(T) Def2-SVP tightscf
|  5>
|  6> *xyz 0 3
|  7>  C 0.0 0.0 0.0
|  8> *
|  9>
| 10> %maxcore 5000
| 11>
| 12> %pal
| 13> nprocs 6
| 14> end
| 15>
| 16>
| 17>                          ****END OF INPUT****

CARTESIAN COORDINATES (ANGSTROEM)
---------------------------------
  C      0.000000    0.000000    0.000000

 Total Charge           Charge          ....    0
 Multiplicity           Mult            ....    3
 Number of Electrons    NEL             ....    6
 Basis Dimension        Dim             ....   14

ORBITAL ENERGIES
----------------
                 SPIN UP ORBITALS
  NO   OCC          E(Eh)            E(eV)
   0   1.0000     -11.344064      -308.6877
   1   1.0000      -0.814293       -22.1580
   2   1.0000      -0.440429       -11.9847
   3   1.0000      -0.440429       -11.9847
   4   0.0000       0.038809         1.0561
   5   0.0000       0.491091        13.3633
   6   0.0000       0.634650        17.2697
   7   0.0000       0.634650        17.2697
   8   0.0000       0.717838        19.5334

                 SPIN DOWN ORBITALS
  NO   OCC          E(Eh)            E(eV)
   0   1.0000     -11.295213      -307.3584
   1   1.0000      -0.569521       -15.4974
   2   0.0000       0.081079         2.2063
   3   0.0000       0.137499         3.7415
   4   0.0000       0.137499         3.7415
   5   0.0000       0.556479        15.1426
   6   0.0000       0.750025        20.4092

E(0)                                       ...    -37.645229861
E(0)                                       ...    -37.645229861
E(CORR)                                    ...     -0.069169585
E(TOT)                                     ...    -37.714399446
E(CCSD(T))                                 ...    -37.715409638

MULLIKEN ATOMIC CHARGES AND SPIN DENSITIES
------------------------------------------
   0 C :    0.000000    2.000000
Sum of atomic charges       :    0.0000000

LOEWDIN ATOMIC CHARGES AND SPIN DENSITIES
-----------------------------------------
   0 C :   -0.000000    2.000000

FINAL SINGLE POINT ENERGY       -37.715409637875

DIPOLE MOMENT
-------------
                                X             Y             Z
Electronic contribution:      0.00000       0.00000      -0.00000
Nuclear contribution   :      0.00000       0.00000       0.00000
                        -----------------------------------------
Total Dipole Moment    :      0.00000       0.00000      -0.00000
                        -----------------------------------------
Magnitude (a.u.)       :      0.00000
Magnitude (Debye)      :      0.00000

Rotational constants in cm-1:     0.000000     0.000000     0.000000
Rotational constants in MHz :     0.000000     0.000000     0.000000

                             ****ORCA TERMINATED NORMALLY****
TOTAL RUN TIME: 0 days 0 hours 0 minutes 4 seconds 122 msec
