                         Program Version 4.2.0 -  RELEASE  -
|  1> #
|  2> # 07_N CCSD(T)/Def2-SVP
|  3> #
|  4> ! CCSD(T) Def2-SVP tightscf
|  5>
|  6> *xyz 0 4
|  7>  N 0.0 0.0 0.0
|  8> *
|  9>
| 10> %maxcore 5000
| 11>
| 12> %pal
| 13> nprocs 10
| 14> end
| 15>
| 16>
| 17>                          ****END OF INPUT****

CARTESIAN COORDINATES (ANGSTROEM)
---------------------------------
  N      0.000000    0.000000    0.000000

 Total Charge           Charge          ....    0
 Multiplicity           Mult            ....    4
 Number of Electrons    NEL             ....    7
 Basis Dimension        Dim             ....   14

ORBITAL ENERGIES
----------------
                 SPIN UP ORBITALS
  NO   OCC          E(Eh)            E(eV)
   0   1.0000     -15.667964      -426.3470
   1   1.0000      -1.142038       -31.0764
   2   1.0000      -0.571460       -15.5502
   3   1.0000      -0.571460       -15.5502
   4   1.0000      -0.571460       -15.5502
   5   0.0000       0.693200        18.8629
   6   0.0000       0.880055        23.9475
   7   0.0000       0.880055        23.9475
   8   0.0000       0.880055        23.9475
   9   0.0000       2.340727        63.6944

                 SPIN DOWN ORBITALS
  NO   OCC          E(Eh)            E(eV)
   0   1.0000     -15.572645      -423.7532
   1   1.0000      -0.707056       -19.2400
   2   0.0000       0.164028         4.4634
   3   0.0000       0.164028         4.4634
   4   0.0000       0.164028         4.4634
   5   0.0000       0.812103        22.0984
   6   0.0000       1.095340        29.8057

E(0)                                       ...    -54.336533004
E(0)                                       ...    -54.336533004
E(CORR)                                    ...     -0.084472476
E(TOT)                                     ...    -54.421005479
E(CCSD(T))                                 ...    -54.421719333

MULLIKEN ATOMIC CHARGES AND SPIN DENSITIES
------------------------------------------
   0 N :   -0.000000    3.000000
Sum of atomic charges       :   -0.0000000

LOEWDIN ATOMIC CHARGES AND SPIN DENSITIES
-----------------------------------------
   0 N :    0.000000    3.000000

FINAL SINGLE POINT ENERGY       -54.421719332816

DIPOLE MOMENT
-------------
                                X             Y             Z
Electronic contribution:      0.00000       0.00000      -0.00000
Nuclear contribution   :      0.00000       0.00000       0.00000
                        -----------------------------------------
Total Dipole Moment    :      0.00000       0.00000      -0.00000
                        -----------------------------------------
Magnitude (a.u.)       :      0.00000
Magnitude (Debye)      :      0.00000

Rotational constants in cm-1:     0.000000     0.000000     0.000000
Rotational constants in MHz :     0.000000     0.000000     0.000000

                             ****ORCA TERMINATED NORMALLY****
TOTAL RUN TIME: 0 days 0 hours 0 minutes 3 seconds 843 msec
