                         Program Version 4.2.0 -  RELEASE  -
|  1> #
|  2> # 08_O CCSD(T)/Def2-SVP
|  3> #
|  4> ! CCSD(T) Def2-SVP tightscf
|  5>
|  6> *xyz 0 3
|  7>  O 0.0 0.0 0.0
|  8> *
|  9>
| 10> %maxcore 5000
| 11>
| 12> %pal
| 13> nprocs 15
| 14> end
| 15>
| 16>
| 17>                          ****END OF INPUT****

CARTESIAN COORDINATES (ANGSTROEM)
---------------------------------
  O      0.000000    0.000000    0.000000

 Total Charge           Charge          ....    0
 Multiplicity           Mult            ....    3
 Number of Electrons    NEL             ....    8
 Basis Dimension        Dim             ....   14

ORBITAL ENERGIES
----------------
                 SPIN UP ORBITALS
  NO   OCC          E(Eh)            E(eV)
   0   1.0000     -20.696919      -563.1918
   1   1.0000      -1.385019       -37.6883
   2   1.0000      -0.703010       -19.1299
   3   1.0000      -0.703010       -19.1299
   4   1.0000      -0.606181       -16.4950
   5   0.0000       0.961081        26.1523
   6   0.0000       1.067300        29.0427
   7   0.0000       1.067300        29.0427
   8   0.0000       1.128041        30.6955
   9   0.0000       2.792865        75.9977

                 SPIN DOWN ORBITALS
  NO   OCC          E(Eh)            E(eV)
   0   1.0000     -20.615252      -560.9695
   1   1.0000      -1.048279       -28.5251
   2   1.0000      -0.517979       -14.0949
   3   0.0000       0.128772         3.5041
   4   0.0000       0.128772         3.5041
   5   0.0000       1.053444        28.6657
   6   0.0000       1.172858        31.9151
   7   0.0000       1.290035        35.1036

E(0)                                       ...    -74.720100924
E(0)                                       ...    -74.720100924
E(CORR)                                    ...     -0.116537820
E(TOT)                                     ...    -74.836638744
E(CCSD(T))                                 ...    -74.837470589

MULLIKEN ATOMIC CHARGES AND SPIN DENSITIES
------------------------------------------
   0 O :    0.000000    2.000000
Sum of atomic charges       :    0.0000000

LOEWDIN ATOMIC CHARGES AND SPIN DENSITIES
-----------------------------------------
   0 O :    0.000000    2.000000

FINAL SINGLE POINT ENERGY       -74.837470589305

DIPOLE MOMENT
-------------
                                X             Y             Z
Electronic contribution:     -0.00000       0.00000      -0.00000
Nuclear contribution   :      0.00000       0.00000       0.00000
                        -----------------------------------------
Total Dipole Moment    :     -0.00000       0.00000      -0.00000
                        -----------------------------------------
Magnitude (a.u.)       :      0.00000
Magnitude (Debye)      :      0.00000

Rotational constants in cm-1:     0.000000     0.000000     0.000000
Rotational constants in MHz :     0.000000     0.000000     0.000000

                             ****ORCA TERMINATED NORMALLY****
TOTAL RUN TIME: 0 days 0 hours 1 minutes 44 seconds 551 msec
