                         Program Version 4.2.0 -  RELEASE  -
|  1> #
|  2> # 09_F CCSD(T)/Def2-SVP
|  3> #
|  4> ! CCSD(T) Def2-SVP tightscf
|  5>
|  6> *xyz 0 2
|  7>  F 0.0 0.0 0.0
|  8> *
|  9>
| 10> %maxcore 5000
| 11>
| 12> %pal
| 13> nprocs 21
| 14> end
| 15>
| 16>
| 17>                          ****END OF INPUT****

CARTESIAN COORDINATES (ANGSTROEM)
---------------------------------
  F      0.000000    0.000000    0.000000

 Total Charge           Charge          ....    0
 Multiplicity           Mult            ....    2
 Number of Electrons    NEL             ....    9
 Basis Dimension        Dim             ....   14

ORBITAL ENERGIES
----------------
                 SPIN UP ORBITALS
  NO   OCC          E(Eh)            E(eV)
   0   1.0000     -26.392094      -718.1654
   1   1.0000      -1.631672       -44.4001
   2   1.0000      -0.833078       -22.6692
   3   1.0000      -0.723277       -19.6814
   4   1.0000      -0.723277       -19.6814
   5   0.0000       1.274766        34.6882
   6   0.0000       1.317992        35.8644
   7   0.0000       1.385894        37.7121
   8   0.0000       1.385894        37.7121
   9   0.0000       3.312346        90.1335

                 SPIN DOWN ORBITALS
  NO   OCC          E(Eh)            E(eV)
   0   1.0000     -26.342566      -716.8177
   1   1.0000      -1.440252       -39.1913
   2   1.0000      -0.672418       -18.2974
   3   1.0000      -0.672418       -18.2974
   4   0.0000       0.083736         2.2786
   5   0.0000       1.327367        36.1195
   6   0.0000       1.410472        38.3809
   7   0.0000       1.410472        38.3809
   8   0.0000       1.541570        41.9483

E(0)                                       ...    -99.284051200
E(0)                                       ...    -99.284051200
E(CORR)                                    ...     -0.149749826
E(TOT)                                     ...    -99.433801027
E(CCSD(T))                                 ...    -99.434716857

MULLIKEN ATOMIC CHARGES AND SPIN DENSITIES
------------------------------------------
   0 F :   -0.000000    1.000000
Sum of atomic charges       :   -0.0000000

LOEWDIN ATOMIC CHARGES AND SPIN DENSITIES
-----------------------------------------
   0 F :   -0.000000    1.000000

FINAL SINGLE POINT ENERGY       -99.434716857295

DIPOLE MOMENT
-------------
                                X             Y             Z
Electronic contribution:     -0.00000      -0.00000       0.00000
Nuclear contribution   :      0.00000       0.00000       0.00000
                        -----------------------------------------
Total Dipole Moment    :     -0.00000      -0.00000       0.00000
                        -----------------------------------------
Magnitude (a.u.)       :      0.00000
Magnitude (Debye)      :      0.00000

Rotational constants in cm-1:     0.000000     0.000000     0.000000
Rotational constants in MHz :     0.000000     0.000000     0.000000

                             ****ORCA TERMINATED NORMALLY****
TOTAL RUN TIME: 0 days 0 hours 0 minutes 4 seconds 968 msec
