                         Program Version 4.2.0 -  RELEASE  -
|  1> #
|  2> # 10_Ne CCSD(T)/Def2-SVP
|  3> #
|  4> ! CCSD(T) Def2-SVP tightscf
|  5>
|  6> *xyz 0 1
|  7>  Ne 0.0 0.0 0.0
|  8> *
|  9>
| 10> %maxcore 5000
| 11>
| 12> %pal
| 13> nprocs 10
| 14> end
| 15>
| 16>
| 17>                          ****END OF INPUT****

CARTESIAN COORDINATES (ANGSTROEM)
---------------------------------
  Ne     0.000000    0.000000    0.000000

 Total Charge           Charge          ....    0
 Multiplicity           Mult            ....    1
 Number of Electrons    NEL             ....   10
 Basis Dimension        Dim             ....   14

ORBITAL ENERGIES
----------------

  NO   OCC          E(Eh)            E(eV)
   0   2.0000     -32.752855      -891.2505
   1   2.0000      -1.882241       -51.2184
   2   2.0000      -0.838893       -22.8274
   3   2.0000      -0.838893       -22.8274
   4   2.0000      -0.838893       -22.8274
   5   0.0000       1.634895        44.4878
   6   0.0000       1.696248        46.1573
   7   0.0000       1.696248        46.1573
   8   0.0000       1.696248        46.1573
   9   0.0000       4.518364       122.9509

E(0)                                       ...   -128.376406810
E(0)                                       ...   -128.376406810
E(CORR)                                    ...     -0.187315940
E(TOT)                                     ...   -128.563722750
E(CCSD(T))                                 ...   -128.564755318

MULLIKEN ATOMIC CHARGES
-----------------------
   0 Ne:    0.000000
Sum of atomic charges:    0.0000000

LOEWDIN ATOMIC CHARGES
----------------------
   0 Ne:    0.000000

FINAL SINGLE POINT ENERGY      -128.564755318160

DIPOLE MOMENT
-------------
                                X             Y             Z
Electronic contribution:      0.00000      -0.00000      -0.00000
Nuclear contribution   :      0.00000       0.00000       0.00000
                        -----------------------------------------
Total Dipole Moment    :      0.00000      -0.00000      -0.00000
                        -----------------------------------------
Magnitude (a.u.)       :      0.00000
Magnitude (Debye)      :      0.00000

Rotational constants in cm-1:     0.000000     0.000000     0.000000
Rotational constants in MHz :     0.000000     0.000000     0.000000

                             ****ORCA TERMINATED NORMALLY****
TOTAL RUN TIME: 0 days 0 hours 0 minutes 3 seconds 153 msec
