                         Program Version 4.2.0 -  RELEASE  -
|  1> #
|  2> # 11_Na CCSD(T)/Def2-SVP
|  3> #
|  4> ! HF Def2-SVP tightscf
|  5>
|  6> *xyz 0 2
|  7>  Na 0.0 0.0 0.0
|  8> *
|  9>
| 10> %maxcore 5000
| 11>
| 12> %pal
| 13> nprocs 24
| 14> end
| 15>
| 16> %method
| 17> NewNCore Na 10 end
| 18> end
| 19>
| 20>
| 21>                          ****END OF INPUT****

CARTESIAN COORDINATES (ANGSTROEM)
---------------------------------
  Na     0.000000    0.000000    0.000000

 Total Charge           Charge          ....    0
 Multiplicity           Mult            ....    2
 Number of Electrons    NEL             ....   11
 Basis Dimension        Dim             ....   15

ORBITAL ENERGIES
----------------
                 SPIN UP ORBITALS
  NO   OCC          E(Eh)            E(eV)
   0   1.0000     -40.475603     -1101.3971
   1   1.0000      -2.804025       -76.3014
   2   1.0000      -1.523586       -41.4589
   3   1.0000      -1.523586       -41.4589
   4   1.0000      -1.523586       -41.4589
   5   1.0000      -0.179326        -4.8797
   6   0.0000       0.057498         1.5646
   7   0.0000       0.057498         1.5646
   8   0.0000       0.057498         1.5646
   9   0.0000       0.115457         3.1418
  10   0.0000       0.350587         9.5400

                 SPIN DOWN ORBITALS
  NO   OCC          E(Eh)            E(eV)
   0   1.0000     -40.472310     -1101.3076
   1   1.0000      -2.795711       -76.0752
   2   1.0000      -1.520299       -41.3694
   3   1.0000      -1.520299       -41.3694
   4   1.0000      -1.520299       -41.3694
   5   0.0000       0.018230         0.4961
   6   0.0000       0.102056         2.7771
   7   0.0000       0.102056         2.7771
   8   0.0000       0.102056         2.7771
   9   0.0000       0.155785         4.2391

MULLIKEN ATOMIC CHARGES AND SPIN POPULATIONS
--------------------------------------------
   0 Na:   -0.000000    1.000000
Sum of atomic charges         :   -0.0000000

LOEWDIN ATOMIC CHARGES AND SPIN POPULATIONS
-------------------------------------------
   0 Na:    0.000000    1.000000

FINAL SINGLE POINT ENERGY      -161.792632636091

DIPOLE MOMENT
-------------
                                X             Y             Z
Electronic contribution:      0.00000      -0.00000      -0.00000
Nuclear contribution   :      0.00000       0.00000       0.00000
                        -----------------------------------------
Total Dipole Moment    :      0.00000      -0.00000      -0.00000
                        -----------------------------------------
Magnitude (a.u.)       :      0.00000
Magnitude (Debye)      :      0.00000

Rotational constants in cm-1:     0.000000     0.000000     0.000000
Rotational constants in MHz :     0.000000     0.000000     0.000000

                             ****ORCA TERMINATED NORMALLY****
TOTAL RUN TIME: 0 days 0 hours 0 minutes 13 seconds 547 msec
