                         Program Version 4.2.0 -  RELEASE  -
|  1> #
|  2> # 12_Mg CCSD(T)/Def2-SVP
|  3> #
|  4> ! CCSD(T) Def2-SVP tightscf
|  5>
|  6> *xyz 0 1
|  7>  Mg 0.0 0.0 0.0
|  8> *
|  9>
| 10> %maxcore 5000
| 11>
| 12> %pal
| 13> nprocs 1
| 14> end
| 15>
| 16> %method
| 17> NewNCore Mg 10 end
| 18> end
| 19>
| 20>
| 21>                          ****END OF INPUT****

CARTESIAN COORDINATES (ANGSTROEM)
---------------------------------
  Mg     0.000000    0.000000    0.000000

 Total Charge           Charge          ....    0
 Multiplicity           Mult            ....    1
 Number of Electrons    NEL             ....   12
 Basis Dimension        Dim             ....   18

ORBITAL ENERGIES
----------------

  NO   OCC          E(Eh)            E(eV)
   0   2.0000     -49.035840     -1334.3331
   1   2.0000      -3.775596      -102.7392
   2   2.0000      -2.291008       -62.3415
   3   2.0000      -2.291008       -62.3415
   4   2.0000      -2.291008       -62.3415
   5   2.0000      -0.251596        -6.8463
   6   0.0000       0.053783         1.4635
   7   0.0000       0.053783         1.4635
   8   0.0000       0.053783         1.4635
   9   0.0000       0.135086         3.6759
  10   0.0000       0.271557         7.3895

E(0)                                       ...   -199.534810664
E(0)                                       ...   -199.534810664
E(CORR)                                    ...     -0.031947081
E(TOT)                                     ...   -199.566757745
E(CCSD(T))                                 ...   -199.566757745

MULLIKEN ATOMIC CHARGES
-----------------------
   0 Mg:   -0.000000
Sum of atomic charges:   -0.0000000

LOEWDIN ATOMIC CHARGES
----------------------
   0 Mg:   -0.000000

FINAL SINGLE POINT ENERGY      -199.566757744982

DIPOLE MOMENT
-------------
                                X             Y             Z
Electronic contribution:      0.00000      -0.00000       0.00000
Nuclear contribution   :      0.00000       0.00000       0.00000
                        -----------------------------------------
Total Dipole Moment    :      0.00000      -0.00000       0.00000
                        -----------------------------------------
Magnitude (a.u.)       :      0.00000
Magnitude (Debye)      :      0.00000

Rotational constants in cm-1:     0.000000     0.000000     0.000000
Rotational constants in MHz :     0.000000     0.000000     0.000000

                             ****ORCA TERMINATED NORMALLY****
TOTAL RUN TIME: 0 days 0 hours 0 minutes 1 seconds 919 msec
