                         Program Version 4.2.0 -  RELEASE  -
|  1> #
|  2> # 13_Al CCSD(T)/Def2-SVP
|  3> #
|  4> ! CCSD(T) Def2-SVP tightscf
|  5>
|  6> *xyz 0 2
|  7>  Al 0.0 0.0 0.0
|  8> *
|  9>
| 10> %maxcore 5000
| 11>
| 12> %pal
| 13> nprocs 3
| 14> end
| 15>
| 16>
| 17>                          ****END OF INPUT****

CARTESIAN COORDINATES (ANGSTROEM)
---------------------------------
  Al     0.000000    0.000000    0.000000

 Total Charge           Charge          ....    0
 Multiplicity           Mult            ....    2
 Number of Electrons    NEL             ....   13
 Basis Dimension        Dim             ....   18

ORBITAL ENERGIES
----------------
                 SPIN UP ORBITALS
  NO   OCC          E(Eh)            E(eV)
   0   1.0000     -58.468884     -1591.0192
   1   1.0000      -4.902471      -133.4030
   2   1.0000      -3.218824       -87.5886
   3   1.0000      -3.212524       -87.4172
   4   1.0000      -3.212524       -87.4172
   5   1.0000      -0.420109       -11.4317
   6   1.0000      -0.214770        -5.8442
   7   0.0000       0.029909         0.8139
   8   0.0000       0.029909         0.8139
   9   0.0000       0.199350         5.4246
  10   0.0000       0.450504        12.2588
  11   0.0000       0.479620        13.0511

                 SPIN DOWN ORBITALS
  NO   OCC          E(Eh)            E(eV)
   0   1.0000     -58.465989     -1590.9405
   1   1.0000      -4.898881      -133.3053
   2   1.0000      -3.211118       -87.3790
   3   1.0000      -3.211118       -87.3790
   4   1.0000      -3.201420       -87.1151
   5   1.0000      -0.357512        -9.7284
   6   0.0000       0.041582         1.1315
   7   0.0000       0.041582         1.1315
   8   0.0000       0.078932         2.1479
   9   0.0000       0.214391         5.8339
  10   0.0000       0.483680        13.1616

E(0)                                       ...   -241.789336638
E(0)                                       ...   -241.789336638
E(CORR)                                    ...     -0.043550500
E(TOT)                                     ...   -241.832887138
E(CCSD(T))                                 ...   -241.833465439

MULLIKEN ATOMIC CHARGES AND SPIN DENSITIES
------------------------------------------
   0 Al:   -0.000000    1.000000
Sum of atomic charges       :   -0.0000000

LOEWDIN ATOMIC CHARGES AND SPIN DENSITIES
-----------------------------------------
   0 Al:    0.000000    1.000000

FINAL SINGLE POINT ENERGY      -241.833465438651

DIPOLE MOMENT
-------------
                                X             Y             Z
Electronic contribution:     -0.00000      -0.00000      -0.00000
Nuclear contribution   :      0.00000       0.00000       0.00000
                        -----------------------------------------
Total Dipole Moment    :     -0.00000      -0.00000      -0.00000
                        -----------------------------------------
Magnitude (a.u.)       :      0.00000
Magnitude (Debye)      :      0.00000

Rotational constants in cm-1:     0.000000     0.000000     0.000000
Rotational constants in MHz :     0.000000     0.000000     0.000000

                             ****ORCA TERMINATED NORMALLY****
TOTAL RUN TIME: 0 days 0 hours 0 minutes 3 seconds 409 msec
