                         Program Version 4.2.0 -  RELEASE  -
|  1> #
|  2> # 14_Si CCSD(T)/Def2-SVP
|  3> #
|  4> ! CCSD(T) Def2-SVP tightscf
|  5>
|  6> *xyz 0 3
|  7>  Si 0.0 0.0 0.0
|  8> *
|  9>
| 10> %maxcore 5000
| 11>
| 12> %pal
| 13> nprocs 6
| 14> end
| 15>
| 16>
| 17>                          ****END OF INPUT****

CARTESIAN COORDINATES (ANGSTROEM)
---------------------------------
  Si     0.000000    0.000000    0.000000

 Total Charge           Charge          ....    0
 Multiplicity           Mult            ....    3
 Number of Electrons    NEL             ....   14
 Basis Dimension        Dim             ....   18

ORBITAL ENERGIES
----------------
                 SPIN UP ORBITALS
  NO   OCC          E(Eh)            E(eV)
   0   1.0000     -68.779382     -1871.5821
   1   1.0000      -6.151278      -167.3848
   2   1.0000      -4.261859      -115.9711
   3   1.0000      -4.261859      -115.9711
   4   1.0000      -4.252813      -115.7249
   5   1.0000      -0.613456       -16.6930
   6   1.0000      -0.298425        -8.1206
   7   1.0000      -0.298425        -8.1206
   8   0.0000       0.004196         0.1142
   9   0.0000       0.273461         7.4412
  10   0.0000       0.556464        15.1422
  11   0.0000       0.556464        15.1422
  12   0.0000       0.589142        16.0314

                 SPIN DOWN ORBITALS
  NO   OCC          E(Eh)            E(eV)
   0   1.0000     -68.770126     -1871.3303
   1   1.0000      -6.140409      -167.0890
   2   1.0000      -4.248337      -115.6031
   3   1.0000      -4.234910      -115.2378
   4   1.0000      -4.234910      -115.2378
   5   1.0000      -0.455473       -12.3940
   6   0.0000       0.030963         0.8425
   7   0.0000       0.077867         2.1189
   8   0.0000       0.077867         2.1189
   9   0.0000       0.309156         8.4126
  10   0.0000       0.601410        16.3652

E(0)                                       ...   -288.753128476
E(0)                                       ...   -288.753128476
E(CORR)                                    ...     -0.061461670
E(TOT)                                     ...   -288.814590146
E(CCSD(T))                                 ...   -288.815567385

MULLIKEN ATOMIC CHARGES AND SPIN DENSITIES
------------------------------------------
   0 Si:    0.000000    2.000000
Sum of atomic charges       :    0.0000000

LOEWDIN ATOMIC CHARGES AND SPIN DENSITIES
-----------------------------------------
   0 Si:    0.000000    2.000000

FINAL SINGLE POINT ENERGY      -288.815567385342

DIPOLE MOMENT
-------------
                                X             Y             Z
Electronic contribution:     -0.00000       0.00000       0.00000
Nuclear contribution   :      0.00000       0.00000       0.00000
                        -----------------------------------------
Total Dipole Moment    :     -0.00000       0.00000       0.00000
                        -----------------------------------------
Magnitude (a.u.)       :      0.00000
Magnitude (Debye)      :      0.00000

Rotational constants in cm-1:     0.000000     0.000000     0.000000
Rotational constants in MHz :     0.000000     0.000000     0.000000

                             ****ORCA TERMINATED NORMALLY****
TOTAL RUN TIME: 0 days 0 hours 0 minutes 3 seconds 552 msec
