                         Program Version 4.2.0 -  RELEASE  -
|  1> #
|  2> # 15_P CCSD(T)/Def2-SVP
|  3> #
|  4> ! CCSD(T) Def2-SVP tightscf
|  5>
|  6> *xyz 0 4
|  7>  P 0.0 0.0 0.0
|  8> *
|  9>
| 10> %maxcore 5000
| 11>
| 12> %pal
| 13> nprocs 10
| 14> end
| 15>
| 16>
| 17>                          ****END OF INPUT****

CARTESIAN COORDINATES (ANGSTROEM)
---------------------------------
  P      0.000000    0.000000    0.000000

 Total Charge           Charge          ....    0
 Multiplicity           Mult            ....    4
 Number of Electrons    NEL             ....   15
 Basis Dimension        Dim             ....   18

ORBITAL ENERGIES
----------------
                 SPIN UP ORBITALS
  NO   OCC          E(Eh)            E(eV)
   0   1.0000     -79.938307     -2175.2319
   1   1.0000      -7.511183      -204.3897
   2   1.0000      -5.414092      -147.3249
   3   1.0000      -5.414092      -147.3249
   4   1.0000      -5.414092      -147.3249
   5   1.0000      -0.828810       -22.5531
   6   1.0000      -0.388452       -10.5703
   7   1.0000      -0.388452       -10.5703
   8   1.0000      -0.388452       -10.5703
   9   0.0000       0.360648         9.8137
  10   0.0000       0.715256        19.4631
  11   0.0000       0.715256        19.4631
  12   0.0000       0.715256        19.4631
  13   0.0000       0.715256        19.4631

                 SPIN DOWN ORBITALS
  NO   OCC          E(Eh)            E(eV)
   0   1.0000     -79.918710     -2174.6987
   1   1.0000      -7.489500      -203.7996
   2   1.0000      -5.375625      -146.2782
   3   1.0000      -5.375625      -146.2782
   4   1.0000      -5.375625      -146.2782
   5   1.0000      -0.547305       -14.8929
   6   0.0000       0.072722         1.9789
   7   0.0000       0.072722         1.9789
   8   0.0000       0.072722         1.9789
   9   0.0000       0.422563        11.4985
  10   0.0000       0.821433        22.3523

E(0)                                       ...   -340.597444550
E(0)                                       ...   -340.597444550
E(CORR)                                    ...     -0.078460519
E(TOT)                                     ...   -340.675905069
E(CCSD(T))                                 ...   -340.676927511

MULLIKEN ATOMIC CHARGES AND SPIN DENSITIES
------------------------------------------
   0 P :    0.000000    3.000000
Sum of atomic charges       :    0.0000000

LOEWDIN ATOMIC CHARGES AND SPIN DENSITIES
-----------------------------------------
   0 P :   -0.000000    3.000000

FINAL SINGLE POINT ENERGY      -340.676927510626

DIPOLE MOMENT
-------------
                                X             Y             Z
Electronic contribution:     -0.00000       0.00000       0.00000
Nuclear contribution   :      0.00000       0.00000       0.00000
                        -----------------------------------------
Total Dipole Moment    :     -0.00000       0.00000       0.00000
                        -----------------------------------------
Magnitude (a.u.)       :      0.00000
Magnitude (Debye)      :      0.00000

Rotational constants in cm-1:     0.000000     0.000000     0.000000
Rotational constants in MHz :     0.000000     0.000000     0.000000

                             ****ORCA TERMINATED NORMALLY****
TOTAL RUN TIME: 0 days 0 hours 0 minutes 5 seconds 9 msec
