                         Program Version 4.2.0 -  RELEASE  -
|  1> #
|  2> # 16_S CCSD(T)/Def2-SVP
|  3> #
|  4> ! CCSD(T) Def2-SVP tightscf
|  5>
|  6> *xyz 0 3
|  7>  S 0.0 0.0 0.0
|  8> *
|  9>
| 10> %maxcore 5000
| 11>
| 12> %pal
| 13> nprocs 15
| 14> end
| 15>
| 16>
| 17>                          ****END OF INPUT****

CARTESIAN COORDINATES (ANGSTROEM)
---------------------------------
  S      0.000000    0.000000    0.000000

 Total Charge           Charge          ....    0
 Multiplicity           Mult            ....    3
 Number of Electrons    NEL             ....   16
 Basis Dimension        Dim             ....   18

ORBITAL ENERGIES
----------------
                 SPIN UP ORBITALS
  NO   OCC          E(Eh)            E(eV)
   0   1.0000     -91.964010     -2502.4679
   1   1.0000      -8.998479      -244.8611
   2   1.0000      -6.696682      -182.2260
   3   1.0000      -6.696682      -182.2260
   4   1.0000      -6.675168      -181.6406
   5   1.0000      -0.976706       -26.5775
   6   1.0000      -0.476061       -12.9543
   7   1.0000      -0.476061       -12.9543
   8   1.0000      -0.408947       -11.1280
   9   0.0000       0.475558        12.9406
  10   0.0000       0.810825        22.0637
  11   0.0000       0.810825        22.0637
  12   0.0000       0.860379        23.4121
  13   0.0000       0.860379        23.4121

                 SPIN DOWN ORBITALS
  NO   OCC          E(Eh)            E(eV)
   0   1.0000     -91.946671     -2501.9961
   1   1.0000      -8.980337      -244.3674
   2   1.0000      -6.666203      -181.3966
   3   1.0000      -6.652790      -181.0316
   4   1.0000      -6.652790      -181.0316
   5   1.0000      -0.762494       -20.7485
   6   1.0000      -0.367758       -10.0072
   7   0.0000       0.030563         0.8317
   8   0.0000       0.030563         0.8317
   9   0.0000       0.523101        14.2343
  10   0.0000       0.934846        25.4385
  11   0.0000       0.946476        25.7549

E(0)                                       ...   -397.366396479
E(0)                                       ...   -397.366396479
E(CORR)                                    ...     -0.100378559
E(TOT)                                     ...   -397.466775038
E(CCSD(T))                                 ...   -397.467900087

MULLIKEN ATOMIC CHARGES AND SPIN DENSITIES
------------------------------------------
   0 S :   -0.000000    2.000000
Sum of atomic charges       :   -0.0000000

LOEWDIN ATOMIC CHARGES AND SPIN DENSITIES
-----------------------------------------
   0 S :    0.000000    2.000000

FINAL SINGLE POINT ENERGY      -397.467900086892

DIPOLE MOMENT
-------------
                                X             Y             Z
Electronic contribution:      0.00000       0.00000       0.00000
Nuclear contribution   :      0.00000       0.00000       0.00000
                        -----------------------------------------
Total Dipole Moment    :      0.00000       0.00000       0.00000
                        -----------------------------------------
Magnitude (a.u.)       :      0.00000
Magnitude (Debye)      :      0.00000

Rotational constants in cm-1:     0.000000     0.000000     0.000000
Rotational constants in MHz :     0.000000     0.000000     0.000000

                             ****ORCA TERMINATED NORMALLY****
TOTAL RUN TIME: 0 days 0 hours 0 minutes 7 seconds 270 msec
