                         Program Version 4.2.0 -  RELEASE  -
|  1> #
|  2> # 17_Cl CCSD(T)/Def2-SVP
|  3> #
|  4> ! CCSD(T) Def2-SVP tightscf
|  5>
|  6> *xyz 0 2
|  7>  Cl 0.0 0.0 0.0
|  8> *
|  9>
| 10> %maxcore 5000
| 11>
| 12> %pal
| 13> nprocs 21
| 14> end
| 15>
| 16>
| 17>                          ****END OF INPUT****

CARTESIAN COORDINATES (ANGSTROEM)
---------------------------------
  Cl     0.000000    0.000000    0.000000

 Total Charge           Charge          ....    0
 Multiplicity           Mult            ....    2
 Number of Electrons    NEL             ....   17
 Basis Dimension        Dim             ....   18

ORBITAL ENERGIES
----------------
                 SPIN UP ORBITALS
  NO   OCC          E(Eh)            E(eV)
   0   1.0000    -104.834712     -2852.6975
   1   1.0000     -10.595510      -288.3185
   2   1.0000      -8.088314      -220.0942
   3   1.0000      -8.063023      -219.4060
   4   1.0000      -8.063023      -219.4060
   5   1.0000      -1.120211       -30.4825
   6   1.0000      -0.565908       -15.3991
   7   1.0000      -0.491931       -13.3861
   8   1.0000      -0.491931       -13.3861
   9   0.0000       0.609277        16.5793
  10   0.0000       0.947245        25.7758
  11   0.0000       0.963055        26.2061
  12   0.0000       0.963055        26.2061
  13   0.0000       1.017235        27.6804

                 SPIN DOWN ORBITALS
  NO   OCC          E(Eh)            E(eV)
   0   1.0000    -104.823847     -2852.4019
   1   1.0000     -10.584648      -288.0229
   2   1.0000      -8.057542      -219.2569
   3   1.0000      -8.057542      -219.2569
   4   1.0000      -8.041107      -218.8096
   5   1.0000      -0.999975       -27.2107
   6   1.0000      -0.468142       -12.7388
   7   1.0000      -0.468142       -12.7388
   8   0.0000      -0.018939        -0.5154
   9   0.0000       0.636059        17.3080
  10   0.0000       1.025833        27.9143
  11   0.0000       1.025833        27.9143
  12   0.0000       1.059516        28.8309

E(0)                                       ...   -459.319303318
E(0)                                       ...   -459.319303318
E(CORR)                                    ...     -0.125665404
E(TOT)                                     ...   -459.444968722
E(CCSD(T))                                 ...   -459.445995254

MULLIKEN ATOMIC CHARGES AND SPIN DENSITIES
------------------------------------------
   0 Cl:   -0.000000    1.000000
Sum of atomic charges       :   -0.0000000

LOEWDIN ATOMIC CHARGES AND SPIN DENSITIES
-----------------------------------------
   0 Cl:   -0.000000    1.000000

FINAL SINGLE POINT ENERGY      -459.445995253584

DIPOLE MOMENT
-------------
                                X             Y             Z
Electronic contribution:     -0.00000      -0.00000      -0.00000
Nuclear contribution   :      0.00000       0.00000       0.00000
                        -----------------------------------------
Total Dipole Moment    :     -0.00000      -0.00000      -0.00000
                        -----------------------------------------
Magnitude (a.u.)       :      0.00000
Magnitude (Debye)      :      0.00000

Rotational constants in cm-1:     0.000000     0.000000     0.000000
Rotational constants in MHz :     0.000000     0.000000     0.000000

                             ****ORCA TERMINATED NORMALLY****
TOTAL RUN TIME: 0 days 0 hours 0 minutes 5 seconds 152 msec
