                         Program Version 4.2.0 -  RELEASE  -
|  1> #
|  2> # 18_Ar CCSD(T)/Def2-SVP
|  3> #
|  4> ! CCSD(T) Def2-SVP tightscf
|  5>
|  6> *xyz 0 1
|  7>  Ar 0.0 0.0 0.0
|  8> *
|  9>
| 10> %maxcore 5000
| 11>
| 12> %pal
| 13> nprocs 10
| 14> end
| 15>
| 16>
| 17>                          ****END OF INPUT****

CARTESIAN COORDINATES (ANGSTROEM)
---------------------------------
  Ar     0.000000    0.000000    0.000000

 Total Charge           Charge          ....    0
 Multiplicity           Mult            ....    1
 Number of Electrons    NEL             ....   18
 Basis Dimension        Dim             ....   18

ORBITAL ENERGIES
----------------

  NO   OCC          E(Eh)            E(eV)
   0   2.0000    -118.549371     -3225.8924
   1   2.0000     -12.302467      -334.7671
   2   2.0000      -9.559924      -260.1388
   3   2.0000      -9.559924      -260.1388
   4   2.0000      -9.559924      -260.1388
   5   2.0000      -1.259543       -34.2739
   6   2.0000      -0.576880       -15.6977
   7   2.0000      -0.576880       -15.6977
   8   2.0000      -0.576880       -15.6977
   9   0.0000       0.761805        20.7298
  10   0.0000       1.075550        29.2672
  11   0.0000       1.075550        29.2672
  12   0.0000       1.075550        29.2672
  13   0.0000       1.075550        29.2672

E(0)                                       ...   -526.623384909
E(0)                                       ...   -526.623384909
E(CORR)                                    ...     -0.152397039
E(TOT)                                     ...   -526.775781948
E(CCSD(T))                                 ...   -526.776497060

MULLIKEN ATOMIC CHARGES
-----------------------
   0 Ar:   -0.000000
Sum of atomic charges:   -0.0000000

LOEWDIN ATOMIC CHARGES
----------------------
   0 Ar:   -0.000000

FINAL SINGLE POINT ENERGY      -526.776497059907

DIPOLE MOMENT
-------------
                                X             Y             Z
Electronic contribution:      0.00000       0.00000      -0.00000
Nuclear contribution   :      0.00000       0.00000       0.00000
                        -----------------------------------------
Total Dipole Moment    :      0.00000       0.00000      -0.00000
                        -----------------------------------------
Magnitude (a.u.)       :      0.00000
Magnitude (Debye)      :      0.00000

Rotational constants in cm-1:     0.000000     0.000000     0.000000
Rotational constants in MHz :     0.000000     0.000000     0.000000

                             ****ORCA TERMINATED NORMALLY****
TOTAL RUN TIME: 0 days 0 hours 0 minutes 3 seconds 182 msec
