                         Program Version 4.2.0 -  RELEASE  -
|  1> #
|  2> # 19_K CCSD(T)/Def2-SVP
|  3> #
|  4> ! CCSD(T) Def2-SVP tightscf
|  5>
|  6> *xyz 0 2
|  7>  K 0.0 0.0 0.0
|  8> *
|  9>
| 10> %maxcore 5000
| 11>
| 12> %pal
| 13> nprocs 24
| 14> end
| 15>
| 16>
| 17>                          ****END OF INPUT****

CARTESIAN COORDINATES (ANGSTROEM)
---------------------------------
  K      0.000000    0.000000    0.000000

 Total Charge           Charge          ....    0
 Multiplicity           Mult            ....    2
 Number of Electrons    NEL             ....   19
 Basis Dimension        Dim             ....   24

ORBITAL ENERGIES
----------------
                 SPIN UP ORBITALS
  NO   OCC          E(Eh)            E(eV)
   0   1.0000    -133.525800     -3633.4217
   1   1.0000     -14.490148      -394.2970
   2   1.0000     -11.522150      -313.5336
   3   1.0000     -11.522150      -313.5336
   4   1.0000     -11.522150      -313.5336
   5   1.0000      -1.752718       -47.6939
   6   1.0000      -0.957171       -26.0460
   7   1.0000      -0.957171       -26.0460
   8   1.0000      -0.957171       -26.0460
   9   1.0000      -0.146563        -3.9882
  10   0.0000       0.046042         1.2529
  11   0.0000       0.049052         1.3348
  12   0.0000       0.049052         1.3348
  13   0.0000       0.049052         1.3348
  14   0.0000       0.219337         5.9685

                 SPIN DOWN ORBITALS
  NO   OCC          E(Eh)            E(eV)
   0   1.0000    -133.524641     -3633.3902
   1   1.0000     -14.488029      -394.2393
   2   1.0000     -11.521450      -313.5146
   3   1.0000     -11.521450      -313.5146
   4   1.0000     -11.521450      -313.5146
   5   1.0000      -1.746947       -47.5368
   6   1.0000      -0.954630       -25.9768
   7   1.0000      -0.954630       -25.9768
   8   1.0000      -0.954630       -25.9768
   9   0.0000       0.008558         0.2329
  10   0.0000       0.074618         2.0305
  11   0.0000       0.087899         2.3919
  12   0.0000       0.087899         2.3919
  13   0.0000       0.087899         2.3919

E(0)                                       ...   -599.077434403
E(0)                                       ...   -599.077434403
E(CORR)                                    ...     -0.050882567
E(TOT)                                     ...   -599.128316970
E(CCSD(T))                                 ...   -599.128623576

MULLIKEN ATOMIC CHARGES AND SPIN DENSITIES
------------------------------------------
   0 K :   -0.000000    1.000000
Sum of atomic charges       :   -0.0000000

LOEWDIN ATOMIC CHARGES AND SPIN DENSITIES
-----------------------------------------
   0 K :    0.000000    1.000000

FINAL SINGLE POINT ENERGY      -599.128623576349

DIPOLE MOMENT
-------------
                                X             Y             Z
Electronic contribution:      0.00000      -0.00000       0.00000
Nuclear contribution   :      0.00000       0.00000       0.00000
                        -----------------------------------------
Total Dipole Moment    :      0.00000      -0.00000       0.00000
                        -----------------------------------------
Magnitude (a.u.)       :      0.00000
Magnitude (Debye)      :      0.00000

Rotational constants in cm-1:     0.000000     0.000000     0.000000
Rotational constants in MHz :     0.000000     0.000000     0.000000

                             ****ORCA TERMINATED NORMALLY****
TOTAL RUN TIME: 0 days 0 hours 0 minutes 8 seconds 865 msec
