                         Program Version 4.2.0 -  RELEASE  -
|  1> #
|  2> # 20_Ca CCSD(T)/Def2-SVP
|  3> #
|  4> ! CCSD(T) Def2-SVP tightscf
|  5>
|  6> *xyz 0 1
|  7>  Ca 0.0 0.0 0.0
|  8> *
|  9>
| 10> %maxcore 5000
| 11>
| 12> %pal
| 13> nprocs 15
| 14> end
| 15>
| 16>
| 17>                          ****END OF INPUT****

CARTESIAN COORDINATES (ANGSTROEM)
---------------------------------
  Ca     0.000000    0.000000    0.000000

 Total Charge           Charge          ....    0
 Multiplicity           Mult            ....    1
 Number of Electrons    NEL             ....   20
 Basis Dimension        Dim             ....   24

ORBITAL ENERGIES
----------------

  NO   OCC          E(Eh)            E(eV)
   0   2.0000    -149.356650     -4064.2011
   1   2.0000     -16.822135      -457.7536
   2   2.0000     -13.632648      -370.9632
   3   2.0000     -13.632648      -370.9632
   4   2.0000     -13.632648      -370.9632
   5   2.0000      -2.245914       -61.1144
   6   2.0000      -1.341998       -36.5176
   7   2.0000      -1.341998       -36.5176
   8   2.0000      -1.341998       -36.5176
   9   2.0000      -0.195153        -5.3104
  10   0.0000       0.079519         2.1638
  11   0.0000       0.084065         2.2875
  12   0.0000       0.084065         2.2875
  13   0.0000       0.084065         2.2875
  14   0.0000       0.124975         3.4007

E(0)                                       ...   -676.660703810
E(0)                                       ...   -676.660703810
E(CORR)                                    ...     -0.135463279
E(TOT)                                     ...   -676.796167089
E(CCSD(T))                                 ...   -676.797865418

MULLIKEN ATOMIC CHARGES
-----------------------
   0 Ca:   -0.000000
Sum of atomic charges:   -0.0000000

LOEWDIN ATOMIC CHARGES
----------------------
   0 Ca:    0.000000

FINAL SINGLE POINT ENERGY      -676.797865418183

DIPOLE MOMENT
-------------
                                X             Y             Z
Electronic contribution:     -0.00000      -0.00000      -0.00000
Nuclear contribution   :      0.00000       0.00000       0.00000
                        -----------------------------------------
Total Dipole Moment    :     -0.00000      -0.00000      -0.00000
                        -----------------------------------------
Magnitude (a.u.)       :      0.00000
Magnitude (Debye)      :      0.00000

Rotational constants in cm-1:     0.000000     0.000000     0.000000
Rotational constants in MHz :     0.000000     0.000000     0.000000

                             ****ORCA TERMINATED NORMALLY****
TOTAL RUN TIME: 0 days 0 hours 0 minutes 3 seconds 412 msec
