                         Program Version 4.2.0 -  RELEASE  -
|  1> #
|  2> # 21_Sc CCSD(T)/Def2-SVP
|  3> #
|  4> ! CCSD(T) Def2-SVP tightscf
|  5>
|  6> *xyz 0 2
|  7>  Sc 0.0 0.0 0.0
|  8> *
|  9>
| 10> %maxcore 5000
| 11>
| 12> %pal
| 13> nprocs 24
| 14> end
| 15>
| 16>
| 17>                          ****END OF INPUT****

CARTESIAN COORDINATES (ANGSTROEM)
---------------------------------
  Sc     0.000000    0.000000    0.000000

 Total Charge           Charge          ....    0
 Multiplicity           Mult            ....    2
 Number of Electrons    NEL             ....   21
 Basis Dimension        Dim             ....   31

ORBITAL ENERGIES
----------------
                 SPIN UP ORBITALS
  NO   OCC          E(Eh)            E(eV)
   0   1.0000    -165.890468     -4514.1091
   1   1.0000     -19.084406      -519.3131
   2   1.0000     -15.678665      -426.6382
   3   1.0000     -15.675733      -426.5584
   4   1.0000     -15.675733      -426.5584
   5   1.0000      -2.593755       -70.5797
   6   1.0000      -1.620927       -44.1077
   7   1.0000      -1.620927       -44.1077
   8   1.0000      -1.584559       -43.1181
   9   1.0000      -0.349173        -9.5015
  10   1.0000      -0.215276        -5.8580
  11   0.0000       0.090610         2.4656
  12   0.0000       0.097077         2.6416
  13   0.0000       0.097077         2.6416
  14   0.0000       0.097738         2.6596
  15   0.0000       0.139203         3.7879

                 SPIN DOWN ORBITALS
  NO   OCC          E(Eh)            E(eV)
   0   1.0000    -165.890274     -4514.1038
   1   1.0000     -19.071403      -518.9592
   2   1.0000     -15.676040      -426.5667
   3   1.0000     -15.657420      -426.0601
   4   1.0000     -15.657420      -426.0601
   5   1.0000      -2.538939       -69.0880
   6   1.0000      -1.575965       -42.8842
   7   1.0000      -1.522085       -41.4180
   8   1.0000      -1.522085       -41.4180
   9   1.0000      -0.203866        -5.5475
  10   0.0000       0.094795         2.5795
  11   0.0000       0.095449         2.5973
  12   0.0000       0.114091         3.1046
  13   0.0000       0.114091         3.1046
  14   0.0000       0.159416         4.3379

E(0)                                       ...   -759.628616015
E(0)                                       ...   -759.628616015
E(CORR)                                    ...     -0.182922836
E(TOT)                                     ...   -759.811538850
E(CCSD(T))                                 ...   -759.815473641

MULLIKEN ATOMIC CHARGES AND SPIN DENSITIES
------------------------------------------
   0 Sc:   -0.000000    1.000000
Sum of atomic charges       :   -0.0000000

LOEWDIN ATOMIC CHARGES AND SPIN DENSITIES
-----------------------------------------
   0 Sc:    0.000000    1.000000

FINAL SINGLE POINT ENERGY      -759.815473641030

DIPOLE MOMENT
-------------
                                X             Y             Z
Electronic contribution:     -0.00000       0.00000      -0.00000
Nuclear contribution   :      0.00000       0.00000       0.00000
                        -----------------------------------------
Total Dipole Moment    :     -0.00000       0.00000      -0.00000
                        -----------------------------------------
Magnitude (a.u.)       :      0.00000
Magnitude (Debye)      :      0.00000

Rotational constants in cm-1:     0.000000     0.000000     0.000000
Rotational constants in MHz :     0.000000     0.000000     0.000000

                             ****ORCA TERMINATED NORMALLY****
TOTAL RUN TIME: 0 days 0 hours 0 minutes 11 seconds 701 msec
