                         Program Version 4.2.0 -  RELEASE  -
|  1> #
|  2> # 22_Ti CCSD(T)/Def2-SVP
|  3> #
|  4> ! CCSD(T) Def2-SVP tightscf
|  5>
|  6> *xyz 0 3
|  7>  Ti 0.0 0.0 0.0
|  8> *
|  9>
| 10> %maxcore 5000
| 11>
| 12> %pal
| 13> nprocs 24
| 14> end
| 15>
| 16>
| 17>                          ****END OF INPUT****

CARTESIAN COORDINATES (ANGSTROEM)
---------------------------------
  Ti     0.000000    0.000000    0.000000

 Total Charge           Charge          ....    0
 Multiplicity           Mult            ....    3
 Number of Electrons    NEL             ....   22
 Basis Dimension        Dim             ....   31

ORBITAL ENERGIES
----------------
                 SPIN UP ORBITALS
  NO   OCC          E(Eh)            E(eV)
   0   1.0000    -183.262559     -4986.8277
   1   1.0000     -21.436662      -583.3212
   2   1.0000     -17.810281      -484.6424
   3   1.0000     -17.810281      -484.6424
   4   1.0000     -17.810281      -484.6424
   5   1.0000      -2.935929       -79.8907
   6   1.0000      -1.874284       -51.0019
   7   1.0000      -1.874283       -51.0018
   8   1.0000      -1.874283       -51.0018
   9   1.0000      -0.445684       -12.1277
  10   1.0000      -0.445684       -12.1277
  11   1.0000      -0.230891        -6.2829
  12   0.0000       0.098308         2.6751
  13   0.0000       0.107770         2.9326
  14   0.0000       0.107771         2.9326
  15   0.0000       0.107772         2.9326
  16   0.0000       0.157153         4.2763

                 SPIN DOWN ORBITALS
  NO   OCC          E(Eh)            E(eV)
   0   1.0000    -183.261994     -4986.8124
   1   1.0000     -21.402899      -582.4025
   2   1.0000     -17.776486      -483.7228
   3   1.0000     -17.776485      -483.7228
   4   1.0000     -17.776484      -483.7227
   5   1.0000      -2.808229       -76.4158
   6   1.0000      -1.716742       -46.7149
   7   1.0000      -1.716741       -46.7149
   8   1.0000      -1.716739       -46.7148
   9   1.0000      -0.209193        -5.6924
  10   0.0000       0.108508         2.9527
  11   0.0000       0.127040         3.4569
  12   0.0000       0.127041         3.4570
  13   0.0000       0.127044         3.4570
  14   0.0000       0.190942         5.1958

E(0)                                       ...   -848.287292389
E(0)                                       ...   -848.287292389
E(CORR)                                    ...     -0.193893788
E(TOT)                                     ...   -848.481186177
E(CCSD(T))                                 ...   -848.485599388

MULLIKEN ATOMIC CHARGES AND SPIN DENSITIES
------------------------------------------
   0 Ti:   -0.000000    2.000000
Sum of atomic charges       :   -0.0000000

LOEWDIN ATOMIC CHARGES AND SPIN DENSITIES
-----------------------------------------
   0 Ti:   -0.000000    2.000000

FINAL SINGLE POINT ENERGY      -848.485599388494

DIPOLE MOMENT
-------------
                                X             Y             Z
Electronic contribution:      0.00000       0.00000      -0.00000
Nuclear contribution   :      0.00000       0.00000       0.00000
                        -----------------------------------------
Total Dipole Moment    :      0.00000       0.00000      -0.00000
                        -----------------------------------------
Magnitude (a.u.)       :      0.00000
Magnitude (Debye)      :      0.00000

Rotational constants in cm-1:     0.000000     0.000000     0.000000
Rotational constants in MHz :     0.000000     0.000000     0.000000

                             ****ORCA TERMINATED NORMALLY****
TOTAL RUN TIME: 0 days 0 hours 0 minutes 35 seconds 73 msec
