                         Program Version 4.2.0 -  RELEASE  -
|  1> #
|  2> # 23_V CCSD(T)/Def2-SVP
|  3> #
|  4> ! CCSD(T) Def2-SVP tightscf
|  5>
|  6> *xyz 0 4
|  7>  V 0.0 0.0 0.0
|  8> *
|  9>
| 10> %maxcore 5000
| 11>
| 12> %pal
| 13> nprocs 24
| 14> end
| 15>
| 16>
| 17>                          ****END OF INPUT****

CARTESIAN COORDINATES (ANGSTROEM)
---------------------------------
  V      0.000000    0.000000    0.000000

 Total Charge           Charge          ....    0
 Multiplicity           Mult            ....    4
 Number of Electrons    NEL             ....   23
 Basis Dimension        Dim             ....   31

ORBITAL ENERGIES
----------------
                 SPIN UP ORBITALS
  NO   OCC          E(Eh)            E(eV)
   0   1.0000    -201.490726     -5482.8414
   1   1.0000     -23.900452      -650.3644
   2   1.0000     -20.054207      -545.7027
   3   1.0000     -20.054207      -545.7027
   4   1.0000     -20.054206      -545.7027
   5   1.0000      -3.286331       -89.4256
   6   1.0000      -2.148234       -58.4564
   7   1.0000      -2.148233       -58.4564
   8   1.0000      -2.148233       -58.4564
   9   1.0000      -0.513433       -13.9712
  10   1.0000      -0.513433       -13.9712
  11   1.0000      -0.513432       -13.9712
  12   1.0000      -0.245121        -6.6701
  13   0.0000       0.105350         2.8667
  14   0.0000       0.115365         3.1392
  15   0.0000       0.115366         3.1393
  16   0.0000       0.115368         3.1393
  17   0.0000       0.155926         4.2430

                 SPIN DOWN ORBITALS
  NO   OCC          E(Eh)            E(eV)
   0   1.0000    -201.489663     -5482.8125
   1   1.0000     -23.839685      -648.7108
   2   1.0000     -19.993717      -544.0567
   3   1.0000     -19.993717      -544.0567
   4   1.0000     -19.993717      -544.0567
   5   1.0000      -3.075752       -83.6955
   6   1.0000      -1.890043       -51.4307
   7   1.0000      -1.890043       -51.4307
   8   1.0000      -1.890042       -51.4307
   9   1.0000      -0.214639        -5.8406
  10   0.0000       0.120592         3.2815
  11   0.0000       0.142674         3.8824
  12   0.0000       0.142676         3.8824
  13   0.0000       0.142678         3.8825
  14   0.0000       0.212187         5.7739

E(0)                                       ...   -942.752233381
E(0)                                       ...   -942.752233381
E(CORR)                                    ...     -0.209828548
E(TOT)                                     ...   -942.962061929
E(CCSD(T))                                 ...   -942.966837153

MULLIKEN ATOMIC CHARGES AND SPIN DENSITIES
------------------------------------------
   0 V :   -0.000000    3.000000
Sum of atomic charges       :   -0.0000000

LOEWDIN ATOMIC CHARGES AND SPIN DENSITIES
-----------------------------------------
   0 V :   -0.000000    3.000000

FINAL SINGLE POINT ENERGY      -942.966837153166

DIPOLE MOMENT
-------------
                                X             Y             Z
Electronic contribution:     -0.00000       0.00000       0.00000
Nuclear contribution   :      0.00000       0.00000       0.00000
                        -----------------------------------------
Total Dipole Moment    :     -0.00000       0.00000       0.00000
                        -----------------------------------------
Magnitude (a.u.)       :      0.00000
Magnitude (Debye)      :      0.00000

Rotational constants in cm-1:     0.000000     0.000000     0.000000
Rotational constants in MHz :     0.000000     0.000000     0.000000

                             ****ORCA TERMINATED NORMALLY****
TOTAL RUN TIME: 0 days 0 hours 0 minutes 34 seconds 50 msec
