                         Program Version 4.2.0 -  RELEASE  -
|  1> #
|  2> # 24_Cr CCSD(T)/Def2-SVP
|  3> #
|  4> ! CCSD(T) Def2-SVP tightscf
|  5>
|  6> *xyz 0 7
|  7>  Cr 0.0 0.0 0.0
|  8> *
|  9>
| 10> %maxcore 5000
| 11>
| 12> %pal
| 13> nprocs 24
| 14> end
| 15>
| 16>
| 17>                          ****END OF INPUT****

CARTESIAN COORDINATES (ANGSTROEM)
---------------------------------
  Cr     0.000000    0.000000    0.000000

 Total Charge           Charge          ....    0
 Multiplicity           Mult            ....    7
 Number of Electrons    NEL             ....   24
 Basis Dimension        Dim             ....   31

ORBITAL ENERGIES
----------------
                 SPIN UP ORBITALS
  NO   OCC          E(Eh)            E(eV)
   0   1.0000    -220.367848     -5996.5140
   1   1.0000     -26.248704      -714.2635
   2   1.0000     -22.184400      -603.6682
   3   1.0000     -22.184400      -603.6682
   4   1.0000     -22.184400      -603.6682
   5   1.0000      -3.450592       -93.8954
   6   1.0000      -2.254535       -61.3490
   7   1.0000      -2.254535       -61.3490
   8   1.0000      -2.254535       -61.3490
   9   1.0000      -0.366885        -9.9835
  10   1.0000      -0.366885        -9.9835
  11   1.0000      -0.366885        -9.9835
  12   1.0000      -0.366885        -9.9835
  13   1.0000      -0.366885        -9.9835
  14   1.0000      -0.217235        -5.9113
  15   0.0000       0.120559         3.2806
  16   0.0000       0.158234         4.3058
  17   0.0000       0.158234         4.3058
  18   0.0000       0.158234         4.3058
  19   0.0000       0.770120        20.9560

                 SPIN DOWN ORBITALS
  NO   OCC          E(Eh)            E(eV)
   0   1.0000    -220.364801     -5996.4311
   1   1.0000     -26.146254      -711.4757
   2   1.0000     -22.084850      -600.9593
   3   1.0000     -22.084850      -600.9593
   4   1.0000     -22.084850      -600.9593
   5   1.0000      -3.101320       -84.3912
   6   1.0000      -1.831284       -49.8318
   7   1.0000      -1.831284       -49.8318
   8   1.0000      -1.831284       -49.8318
   9   0.0000       0.026055         0.7090
  10   0.0000       0.207175         5.6375
  11   0.0000       0.267071         7.2674
  12   0.0000       0.267071         7.2674
  13   0.0000       0.267071         7.2674

E(0)                                       ...  -1043.197071969
E(0)                                       ...  -1043.197071969
E(CORR)                                    ...     -0.207504200
E(TOT)                                     ...  -1043.404576169
E(CCSD(T))                                 ...  -1043.409365531

MULLIKEN ATOMIC CHARGES AND SPIN DENSITIES
------------------------------------------
   0 Cr:   -0.000000    6.000000
Sum of atomic charges       :   -0.0000000

LOEWDIN ATOMIC CHARGES AND SPIN DENSITIES
-----------------------------------------
   0 Cr:    0.000000    6.000000

FINAL SINGLE POINT ENERGY     -1043.409365530940

DIPOLE MOMENT
-------------
                                X             Y             Z
Electronic contribution:      0.00000      -0.00000       0.00000
Nuclear contribution   :      0.00000       0.00000       0.00000
                        -----------------------------------------
Total Dipole Moment    :      0.00000      -0.00000       0.00000
                        -----------------------------------------
Magnitude (a.u.)       :      0.00000
Magnitude (Debye)      :      0.00000

Rotational constants in cm-1:     0.000000     0.000000     0.000000
Rotational constants in MHz :     0.000000     0.000000     0.000000

                             ****ORCA TERMINATED NORMALLY****
TOTAL RUN TIME: 0 days 0 hours 0 minutes 14 seconds 788 msec
