                         Program Version 4.2.0 -  RELEASE  -
|  1> #
|  2> # 26_Fe CCSD(T)/Def2-SVP
|  3> #
|  4> ! CCSD(T) Def2-SVP tightscf
|  5>
|  6> *xyz 0 5
|  7>  Fe 0.0 0.0 0.0
|  8> *
|  9>
| 10> %maxcore 5000
| 11>
| 12> %pal
| 13> nprocs 24
| 14> end
| 15>
| 16>
| 17>                          ****END OF INPUT****

CARTESIAN COORDINATES (ANGSTROEM)
---------------------------------
  Fe     0.000000    0.000000    0.000000

 Total Charge           Charge          ....    0
 Multiplicity           Mult            ....    5
 Number of Electrons    NEL             ....   26
 Basis Dimension        Dim             ....   31

ORBITAL ENERGIES
----------------
                 SPIN UP ORBITALS
  NO   OCC          E(Eh)            E(eV)
   0   1.0000    -261.067870     -7104.0179
   1   1.0000     -31.668514      -861.7441
   2   1.0000     -27.156249      -738.9591
   3   1.0000     -27.156249      -738.9591
   4   1.0000     -27.156248      -738.9591
   5   1.0000      -4.028299      -109.6156
   6   1.0000      -2.645195       -71.9794
   7   1.0000      -2.645195       -71.9794
   8   1.0000      -2.645193       -71.9794
   9   1.0000      -0.417011       -11.3474
  10   1.0000      -0.417011       -11.3474
  11   1.0000      -0.417010       -11.3474
  12   1.0000      -0.372612       -10.1393
  13   1.0000      -0.372612       -10.1393
  14   1.0000      -0.214595        -5.8394
  15   0.0000       0.168918         4.5965
  16   0.0000       0.193329         5.2607
  17   0.0000       0.193329         5.2608
  18   0.0000       0.193332         5.2608
  19   0.0000       1.298471        35.3332

                 SPIN DOWN ORBITALS
  NO   OCC          E(Eh)            E(eV)
   0   1.0000    -261.064719     -7103.9322
   1   1.0000     -31.583911      -859.4419
   2   1.0000     -27.075059      -736.7498
   3   1.0000     -27.075059      -736.7498
   4   1.0000     -27.075058      -736.7498
   5   1.0000      -3.776692      -102.7690
   6   1.0000      -2.345293       -63.8187
   7   1.0000      -2.345292       -63.8186
   8   1.0000      -2.345290       -63.8186
   9   1.0000      -0.280163        -7.6236
  10   1.0000      -0.280162        -7.6236
  11   0.0000       0.025058         0.6819
  12   0.0000       0.244449         6.6518
  13   0.0000       0.276432         7.5221
  14   0.0000       0.276435         7.5222
  15   0.0000       0.276435         7.5222

E(0)                                       ...  -1262.170263080
E(0)                                       ...  -1262.170263080
E(CORR)                                    ...     -0.266936010
E(TOT)                                     ...  -1262.437199090
E(CCSD(T))                                 ...  -1262.443882711

MULLIKEN ATOMIC CHARGES AND SPIN DENSITIES
------------------------------------------
   0 Fe:   -0.000000    4.000000
Sum of atomic charges       :   -0.0000000

LOEWDIN ATOMIC CHARGES AND SPIN DENSITIES
-----------------------------------------
   0 Fe:   -0.000000    4.000000

FINAL SINGLE POINT ENERGY     -1262.443882710850

DIPOLE MOMENT
-------------
                                X             Y             Z
Electronic contribution:      0.00000      -0.00000       0.00000
Nuclear contribution   :      0.00000       0.00000       0.00000
                        -----------------------------------------
Total Dipole Moment    :      0.00000      -0.00000       0.00000
                        -----------------------------------------
Magnitude (a.u.)       :      0.00000
Magnitude (Debye)      :      0.00000

Rotational constants in cm-1:     0.000000     0.000000     0.000000
Rotational constants in MHz :     0.000000     0.000000     0.000000

                             ****ORCA TERMINATED NORMALLY****
TOTAL RUN TIME: 0 days 0 hours 0 minutes 33 seconds 706 msec
