                         Program Version 4.2.0 -  RELEASE  -
|  1> #
|  2> # 28_Ni CCSD(T)/Def2-SVP
|  3> #
|  4> ! CCSD(T) Def2-SVP tightscf
|  5>
|  6> *xyz 0 3
|  7>  Ni 0.0 0.0 0.0
|  8> *
|  9>
| 10> %maxcore 5000
| 11>
| 12> %pal
| 13> nprocs 24
| 14> end
| 15>
| 16>
| 17>                          ****END OF INPUT****

CARTESIAN COORDINATES (ANGSTROEM)
---------------------------------
  Ni     0.000000    0.000000    0.000000

 Total Charge           Charge          ....    0
 Multiplicity           Mult            ....    3
 Number of Electrons    NEL             ....   28
 Basis Dimension        Dim             ....   31

ORBITAL ENERGIES
----------------
                 SPIN UP ORBITALS
  NO   OCC          E(Eh)            E(eV)
   0   1.0000    -305.278505     -8307.0504
   1   1.0000     -37.593763     -1022.9783
   2   1.0000     -32.650216      -888.4575
   3   1.0000     -32.631405      -887.9457
   4   1.0000     -32.606442      -887.2664
   5   1.0000      -4.643637      -126.3598
   6   1.0000      -3.105519       -84.5055
   7   1.0000      -3.065035       -83.4038
   8   1.0000      -3.012023       -81.9613
   9   1.0000      -0.493372       -13.4253
  10   1.0000      -0.440816       -11.9952
  11   1.0000      -0.419712       -11.4209
  12   1.0000      -0.403670       -10.9844
  13   1.0000      -0.399404       -10.8683
  14   1.0000      -0.220582        -6.0023
  15   0.0000       0.200501         5.4559
  16   0.0000       0.204913         5.5760
  17   0.0000       0.212757         5.7894
  18   0.0000       0.223091         6.0706
  19   0.0000       1.515411        41.2364

                 SPIN DOWN ORBITALS
  NO   OCC          E(Eh)            E(eV)
   0   1.0000    -305.276001     -8306.9823
   1   1.0000     -37.557201     -1021.9834
   2   1.0000     -32.595798      -886.9768
   3   1.0000     -32.595610      -886.9716
   4   1.0000     -32.595478      -886.9681
   5   1.0000      -4.543795      -123.6429
   6   1.0000      -2.978257       -81.0425
   7   1.0000      -2.944100       -80.1130
   8   1.0000      -2.917876       -79.3994
   9   1.0000      -0.418641       -11.3918
  10   1.0000      -0.382225       -10.4009
  11   1.0000      -0.354860        -9.6562
  12   1.0000      -0.348332        -9.4786
  13   0.0000       0.023423         0.6374
  14   0.0000       0.260512         7.0889
  15   0.0000       0.278557         7.5799
  16   0.0000       0.281251         7.6532
  17   0.0000       0.284819         7.7503

E(0)                                       ...  -1506.564996222
E(0)                                       ...  -1506.564996222
E(CORR)                                    ...     -0.321258176
E(TOT)                                     ...  -1506.886254399
E(CCSD(T))                                 ...  -1506.895926128

MULLIKEN ATOMIC CHARGES AND SPIN DENSITIES
------------------------------------------
   0 Ni:   -0.000000    2.000000
Sum of atomic charges       :   -0.0000000

LOEWDIN ATOMIC CHARGES AND SPIN DENSITIES
-----------------------------------------
   0 Ni:   -0.000000    2.000000

FINAL SINGLE POINT ENERGY     -1506.895926128092

DIPOLE MOMENT
-------------
                                X             Y             Z
Electronic contribution:      0.00000      -0.00000       0.00000
Nuclear contribution   :      0.00000       0.00000       0.00000
                        -----------------------------------------
Total Dipole Moment    :      0.00000      -0.00000       0.00000
                        -----------------------------------------
Magnitude (a.u.)       :      0.00000
Magnitude (Debye)      :      0.00000

Rotational constants in cm-1:     0.000000     0.000000     0.000000
Rotational constants in MHz :     0.000000     0.000000     0.000000

                             ****ORCA TERMINATED NORMALLY****
TOTAL RUN TIME: 0 days 0 hours 0 minutes 9 seconds 646 msec
