                         Program Version 4.2.0 -  RELEASE  -
|  1> #
|  2> # 29_Cu CCSD(T)/Def2-SVP
|  3> #
|  4> ! CCSD(T) Def2-SVP tightscf
|  5>
|  6> *xyz 0 2
|  7>  Cu 0.0 0.0 0.0
|  8> *
|  9>
| 10> %maxcore 5000
| 11>
| 12> %pal
| 13> nprocs 24
| 14> end
| 15>
| 16>
| 17>                          ****END OF INPUT****

CARTESIAN COORDINATES (ANGSTROEM)
---------------------------------
  Cu     0.000000    0.000000    0.000000

 Total Charge           Charge          ....    0
 Multiplicity           Mult            ....    2
 Number of Electrons    NEL             ....   29
 Basis Dimension        Dim             ....   31

ORBITAL ENERGIES
----------------
                 SPIN UP ORBITALS
  NO   OCC          E(Eh)            E(eV)
   0   1.0000    -328.752985     -8945.8235
   1   1.0000     -40.789376     -1109.9353
   2   1.0000     -35.598624      -968.6878
   3   1.0000     -35.598624      -968.6878
   4   1.0000     -35.598624      -968.6878
   5   1.0000      -4.990696      -135.8037
   6   1.0000      -3.303162       -89.8836
   7   1.0000      -3.303162       -89.8836
   8   1.0000      -3.303162       -89.8836
   9   1.0000      -0.470389       -12.7999
  10   1.0000      -0.470389       -12.7999
  11   1.0000      -0.470389       -12.7999
  12   1.0000      -0.470389       -12.7999
  13   1.0000      -0.470389       -12.7999
  14   1.0000      -0.230639        -6.2760
  15   0.0000       0.141247         3.8435
  16   0.0000       0.221358         6.0235
  17   0.0000       0.221358         6.0235
  18   0.0000       0.221358         6.0235
  19   0.0000       1.336554        36.3695

                 SPIN DOWN ORBITALS
  NO   OCC          E(Eh)            E(eV)
   0   1.0000    -328.751004     -8945.7696
   1   1.0000     -40.788829     -1109.9205
   2   1.0000     -35.599956      -968.7241
   3   1.0000     -35.599956      -968.7241
   4   1.0000     -35.599956      -968.7241
   5   1.0000      -4.987019      -135.7037
   6   1.0000      -3.304818       -89.9287
   7   1.0000      -3.304818       -89.9287
   8   1.0000      -3.304818       -89.9287
   9   1.0000      -0.470817       -12.8116
  10   1.0000      -0.470817       -12.8116
  11   1.0000      -0.470817       -12.8116
  12   1.0000      -0.470817       -12.8116
  13   1.0000      -0.470817       -12.8116
  14   0.0000       0.017703         0.4817
  15   0.0000       0.190650         5.1878
  16   0.0000       0.286482         7.7956
  17   0.0000       0.286482         7.7956
  18   0.0000       0.286482         7.7956

E(0)                                       ...  -1638.688583830
E(0)                                       ...  -1638.688583830
E(CORR)                                    ...     -0.317954361
E(TOT)                                     ...  -1639.006538191
E(CCSD(T))                                 ...  -1639.020918222

MULLIKEN ATOMIC CHARGES AND SPIN DENSITIES
------------------------------------------
   0 Cu:   -0.000000    1.000000
Sum of atomic charges       :   -0.0000000

LOEWDIN ATOMIC CHARGES AND SPIN DENSITIES
-----------------------------------------
   0 Cu:    0.000000    1.000000

FINAL SINGLE POINT ENERGY     -1639.020918222395

DIPOLE MOMENT
-------------
                                X             Y             Z
Electronic contribution:     -0.00000       0.00000       0.00000
Nuclear contribution   :      0.00000       0.00000       0.00000
                        -----------------------------------------
Total Dipole Moment    :     -0.00000       0.00000       0.00000
                        -----------------------------------------
Magnitude (a.u.)       :      0.00000
Magnitude (Debye)      :      0.00000

Rotational constants in cm-1:     0.000000     0.000000     0.000000
Rotational constants in MHz :     0.000000     0.000000     0.000000

                             ****ORCA TERMINATED NORMALLY****
TOTAL RUN TIME: 0 days 0 hours 0 minutes 14 seconds 718 msec
