                         Program Version 4.2.0 -  RELEASE  -
|  1> #
|  2> # 30_Zn CCSD(T)/Def2-SVP
|  3> #
|  4> ! CCSD(T) Def2-SVP tightscf
|  5>
|  6> *xyz 0 1
|  7>  Zn 0.0 0.0 0.0
|  8> *
|  9>
| 10> %maxcore 5000
| 11>
| 12> %pal
| 13> nprocs 24
| 14> end
| 15>
| 16>
| 17>                          ****END OF INPUT****

CARTESIAN COORDINATES (ANGSTROEM)
---------------------------------
  Zn     0.000000    0.000000    0.000000

 Total Charge           Charge          ....    0
 Multiplicity           Mult            ....    1
 Number of Electrons    NEL             ....   30
 Basis Dimension        Dim             ....   31

ORBITAL ENERGIES
----------------

  NO   OCC          E(Eh)            E(eV)
   0   2.0000    -353.266394     -9612.8673
   1   2.0000     -44.336992     -1206.4709
   2   2.0000     -38.912084     -1058.8516
   3   2.0000     -38.912084     -1058.8516
   4   2.0000     -38.912084     -1058.8516
   5   2.0000      -5.621527      -152.9695
   6   2.0000      -3.825687      -104.1022
   7   2.0000      -3.825687      -104.1022
   8   2.0000      -3.825687      -104.1022
   9   2.0000      -0.768594       -20.9145
  10   2.0000      -0.768594       -20.9145
  11   2.0000      -0.768594       -20.9145
  12   2.0000      -0.768594       -20.9145
  13   2.0000      -0.768594       -20.9145
  14   2.0000      -0.287396        -7.8205
  15   0.0000       0.179670         4.8891
  16   0.0000       0.189026         5.1437
  17   0.0000       0.189026         5.1437
  18   0.0000       0.189026         5.1437
  19   0.0000       1.654045        45.0089

E(0)                                       ...  -1777.561480922
E(0)                                       ...  -1777.561480922
E(CORR)                                    ...     -0.334365217
E(TOT)                                     ...  -1777.895846139
E(CCSD(T))                                 ...  -1777.906124794

MULLIKEN ATOMIC CHARGES
-----------------------
   0 Zn:   -0.000000
Sum of atomic charges:   -0.0000000

LOEWDIN ATOMIC CHARGES
----------------------
   0 Zn:   -0.000000

FINAL SINGLE POINT ENERGY     -1777.906124794223

DIPOLE MOMENT
-------------
                                X             Y             Z
Electronic contribution:      0.00000      -0.00000      -0.00000
Nuclear contribution   :      0.00000       0.00000       0.00000
                        -----------------------------------------
Total Dipole Moment    :      0.00000      -0.00000      -0.00000
                        -----------------------------------------
Magnitude (a.u.)       :      0.00000
Magnitude (Debye)      :      0.00000

Rotational constants in cm-1:     0.000000     0.000000     0.000000
Rotational constants in MHz :     0.000000     0.000000     0.000000

                             ****ORCA TERMINATED NORMALLY****
TOTAL RUN TIME: 0 days 0 hours 0 minutes 11 seconds 102 msec
