                         Program Version 4.2.0 -  RELEASE  -
|  1> #
|  2> # 31_Ga CCSD(T)/Def2-SVP
|  3> #
|  4> ! CCSD(T) Def2-SVP tightscf
|  5>
|  6> *xyz 0 2
|  7>  Ga 0.0 0.0 0.0
|  8> *
|  9>
| 10> %maxcore 5000
| 11>
| 12> %pal
| 13> nprocs 24
| 14> end
| 15>
| 16>
| 17>                          ****END OF INPUT****

CARTESIAN COORDINATES (ANGSTROEM)
---------------------------------
  Ga     0.000000    0.000000    0.000000

 Total Charge           Charge          ....    0
 Multiplicity           Mult            ....    2
 Number of Electrons    NEL             ....   31
 Basis Dimension        Dim             ....   32

ORBITAL ENERGIES
----------------
                 SPIN UP ORBITALS
  NO   OCC          E(Eh)            E(eV)
   0   1.0000    -378.782601    -10307.1986
   1   1.0000     -48.153049     -1310.3111
   2   1.0000     -42.491567     -1156.2543
   3   1.0000     -42.491491     -1156.2522
   4   1.0000     -42.491491     -1156.2522
   5   1.0000      -6.393001      -173.9624
   6   1.0000      -4.483949      -122.0145
   7   1.0000      -4.483949      -122.0145
   8   1.0000      -4.482798      -121.9831
   9   1.0000      -1.195369       -32.5276
  10   1.0000      -1.195369       -32.5276
  11   1.0000      -1.189516       -32.3684
  12   1.0000      -1.189516       -32.3684
  13   1.0000      -1.187717       -32.3194
  14   1.0000      -0.453804       -12.3486
  15   1.0000      -0.214197        -5.8286
  16   0.0000       0.030263         0.8235
  17   0.0000       0.030263         0.8235
  18   0.0000       0.212065         5.7706
  19   0.0000       0.408564        11.1176
  20   0.0000       0.435405        11.8480

                 SPIN DOWN ORBITALS
  NO   OCC          E(Eh)            E(eV)
   0   1.0000    -378.781462    -10307.1676
   1   1.0000     -48.153420     -1310.3212
   2   1.0000     -42.491847     -1156.2619
   3   1.0000     -42.491847     -1156.2619
   4   1.0000     -42.489316     -1156.1931
   5   1.0000      -6.391941      -173.9336
   6   1.0000      -4.485061      -122.0447
   7   1.0000      -4.485061      -122.0447
   8   1.0000      -4.474377      -121.7540
   9   1.0000      -1.196280       -32.5524
  10   1.0000      -1.196280       -32.5524
  11   1.0000      -1.188102       -32.3299
  12   1.0000      -1.188102       -32.3299
  13   1.0000      -1.185560       -32.2607
  14   1.0000      -0.391209       -10.6453
  15   0.0000       0.041836         1.1384
  16   0.0000       0.041836         1.1384
  17   0.0000       0.079543         2.1645
  18   0.0000       0.228330         6.2132
  19   0.0000       0.440404        11.9840

E(0)                                       ...  -1922.974135092
E(0)                                       ...  -1922.974135092
E(CORR)                                    ...     -0.174136476
E(TOT)                                     ...  -1923.148271568
E(CCSD(T))                                 ...  -1923.154119193

MULLIKEN ATOMIC CHARGES AND SPIN DENSITIES
------------------------------------------
   0 Ga:   -0.000000    1.000000
Sum of atomic charges       :   -0.0000000

LOEWDIN ATOMIC CHARGES AND SPIN DENSITIES
-----------------------------------------
   0 Ga:   -0.000000    1.000000

FINAL SINGLE POINT ENERGY     -1923.154119193098

DIPOLE MOMENT
-------------
                                X             Y             Z
Electronic contribution:     -0.00000       0.00000      -0.00000
Nuclear contribution   :      0.00000       0.00000       0.00000
                        -----------------------------------------
Total Dipole Moment    :     -0.00000       0.00000      -0.00000
                        -----------------------------------------
Magnitude (a.u.)       :      0.00000
Magnitude (Debye)      :      0.00000

Rotational constants in cm-1:     0.000000     0.000000     0.000000
Rotational constants in MHz :     0.000000     0.000000     0.000000

                             ****ORCA TERMINATED NORMALLY****
TOTAL RUN TIME: 0 days 0 hours 0 minutes 8 seconds 346 msec
