                         Program Version 4.2.0 -  RELEASE  -
|  1> #
|  2> # 32_Ge CCSD(T)/Def2-SVP
|  3> #
|  4> ! CCSD(T) Def2-SVP tightscf
|  5>
|  6> *xyz 0 3
|  7>  Ge 0.0 0.0 0.0
|  8> *
|  9>
| 10> %maxcore 5000
| 11>
| 12> %pal
| 13> nprocs 24
| 14> end
| 15>
| 16>
| 17>                          ****END OF INPUT****

CARTESIAN COORDINATES (ANGSTROEM)
---------------------------------
  Ge     0.000000    0.000000    0.000000

 Total Charge           Charge          ....    0
 Multiplicity           Mult            ....    3
 Number of Electrons    NEL             ....   32
 Basis Dimension        Dim             ....   32

ORBITAL ENERGIES
----------------
                 SPIN UP ORBITALS
  NO   OCC          E(Eh)            E(eV)
   0   1.0000    -405.205327    -11026.1975
   1   1.0000     -52.132551     -1418.5988
   2   1.0000     -46.233195     -1258.0692
   3   1.0000     -46.233195     -1258.0692
   4   1.0000     -46.232491     -1258.0500
   5   1.0000      -7.190231      -195.6561
   6   1.0000      -5.165178      -140.5516
   7   1.0000      -5.164759      -140.5402
   8   1.0000      -5.164759      -140.5402
   9   1.0000      -1.638867       -44.5958
  10   1.0000      -1.636416       -44.5291
  11   1.0000      -1.636416       -44.5291
  12   1.0000      -1.629448       -44.3395
  13   1.0000      -1.629448       -44.3395
  14   1.0000      -0.626663       -17.0524
  15   1.0000      -0.289692        -7.8829
  16   1.0000      -0.289692        -7.8829
  17   0.0000      -0.000670        -0.0182
  18   0.0000       0.254604         6.9281
  19   0.0000       0.488569        13.2946
  20   0.0000       0.488569        13.2946
  21   0.0000       0.515571        14.0294

                 SPIN DOWN ORBITALS
  NO   OCC          E(Eh)            E(eV)
   0   1.0000    -405.201600    -11026.0961
   1   1.0000     -52.132123     -1418.5872
   2   1.0000     -46.232589     -1258.0527
   3   1.0000     -46.228886     -1257.9519
   4   1.0000     -46.228886     -1257.9519
   5   1.0000      -7.184324      -195.4954
   6   1.0000      -5.165873      -140.5705
   7   1.0000      -5.151331      -140.1748
   8   1.0000      -5.151331      -140.1748
   9   1.0000      -1.637459       -44.5575
  10   1.0000      -1.633682       -44.4547
  11   1.0000      -1.633682       -44.4547
  12   1.0000      -1.622870       -44.1605
  13   1.0000      -1.622870       -44.1605
  14   1.0000      -0.474964       -12.9244
  15   0.0000       0.026425         0.7191
  16   0.0000       0.071502         1.9457
  17   0.0000       0.071502         1.9457
  18   0.0000       0.289149         7.8681
  19   0.0000       0.528432        14.3794

E(0)                                       ...  -2075.058049615
E(0)                                       ...  -2075.058049615
E(CORR)                                    ...     -0.176550764
E(TOT)                                     ...  -2075.234600379
E(CCSD(T))                                 ...  -2075.239066143

MULLIKEN ATOMIC CHARGES AND SPIN DENSITIES
------------------------------------------
   0 Ge:   -0.000000    2.000000
Sum of atomic charges       :   -0.0000000

LOEWDIN ATOMIC CHARGES AND SPIN DENSITIES
-----------------------------------------
   0 Ge:   -0.000000    2.000000

FINAL SINGLE POINT ENERGY     -2075.239066142813

DIPOLE MOMENT
-------------
                                X             Y             Z
Electronic contribution:      0.00000       0.00000       0.00000
Nuclear contribution   :      0.00000       0.00000       0.00000
                        -----------------------------------------
Total Dipole Moment    :      0.00000       0.00000       0.00000
                        -----------------------------------------
Magnitude (a.u.)       :      0.00000
Magnitude (Debye)      :      0.00000

Rotational constants in cm-1:     0.000000     0.000000     0.000000
Rotational constants in MHz :     0.000000     0.000000     0.000000

                             ****ORCA TERMINATED NORMALLY****
TOTAL RUN TIME: 0 days 0 hours 0 minutes 9 seconds 851 msec
