                         Program Version 4.2.0 -  RELEASE  -
|  1> #
|  2> # 33_As CCSD(T)/Def2-SVP
|  3> #
|  4> ! CCSD(T) Def2-SVP tightscf
|  5>
|  6> *xyz 0 4
|  7>  As 0.0 0.0 0.0
|  8> *
|  9>
| 10> %maxcore 5000
| 11>
| 12> %pal
| 13> nprocs 24
| 14> end
| 15>
| 16>
| 17>                          ****END OF INPUT****

CARTESIAN COORDINATES (ANGSTROEM)
---------------------------------
  As     0.000000    0.000000    0.000000

 Total Charge           Charge          ....    0
 Multiplicity           Mult            ....    4
 Number of Electrons    NEL             ....   33
 Basis Dimension        Dim             ....   32

ORBITAL ENERGIES
----------------
                 SPIN UP ORBITALS
  NO   OCC          E(Eh)            E(eV)
   0   1.0000    -432.545165    -11770.1523
   1   1.0000     -56.290903     -1531.7533
   2   1.0000     -50.151532     -1364.6926
   3   1.0000     -50.151532     -1364.6926
   4   1.0000     -50.151532     -1364.6926
   5   1.0000      -8.032058      -218.5634
   6   1.0000      -5.888839      -160.2435
   7   1.0000      -5.888839      -160.2435
   8   1.0000      -5.888839      -160.2435
   9   1.0000      -2.114606       -57.5414
  10   1.0000      -2.114606       -57.5414
  11   1.0000      -2.114606       -57.5414
  12   1.0000      -2.114606       -57.5414
  13   1.0000      -2.114606       -57.5414
  14   1.0000      -0.811729       -22.0883
  15   1.0000      -0.368234       -10.0201
  16   1.0000      -0.368234       -10.0201
  17   1.0000      -0.368234       -10.0201
  18   0.0000       0.303611         8.2617
  19   0.0000       0.563195        15.3253
  20   0.0000       0.563195        15.3253
  21   0.0000       0.563195        15.3253
  22   0.0000       0.563195        15.3253

                 SPIN DOWN ORBITALS
  NO   OCC          E(Eh)            E(eV)
   0   1.0000    -432.537321    -11769.9389
   1   1.0000     -56.288419     -1531.6858
   2   1.0000     -50.144363     -1364.4975
   3   1.0000     -50.144363     -1364.4975
   4   1.0000     -50.144363     -1364.4975
   5   1.0000      -8.017953      -218.1796
   6   1.0000      -5.869179      -159.7085
   7   1.0000      -5.869179      -159.7085
   8   1.0000      -5.869179      -159.7085
   9   1.0000      -2.104911       -57.2775
  10   1.0000      -2.104911       -57.2775
  11   1.0000      -2.104911       -57.2775
  12   1.0000      -2.104911       -57.2775
  13   1.0000      -2.104911       -57.2775
  14   1.0000      -0.550907       -14.9909
  15   0.0000       0.058903         1.6028
  16   0.0000       0.058903         1.6028
  17   0.0000       0.058903         1.6028
  18   0.0000       0.358786         9.7631
  19   0.0000       0.676876        18.4187

E(0)                                       ...  -2233.916922846
E(0)                                       ...  -2233.916922846
E(CORR)                                    ...     -0.182894914
E(TOT)                                     ...  -2234.099817760
E(CCSD(T))                                 ...  -2234.103477634

MULLIKEN ATOMIC CHARGES AND SPIN DENSITIES
------------------------------------------
   0 As:    0.000000    3.000000
Sum of atomic charges       :    0.0000000

LOEWDIN ATOMIC CHARGES AND SPIN DENSITIES
-----------------------------------------
   0 As:   -0.000000    3.000000

FINAL SINGLE POINT ENERGY     -2234.103477633544

DIPOLE MOMENT
-------------
                                X             Y             Z
Electronic contribution:     -0.00000      -0.00000       0.00000
Nuclear contribution   :      0.00000       0.00000       0.00000
                        -----------------------------------------
Total Dipole Moment    :     -0.00000      -0.00000       0.00000
                        -----------------------------------------
Magnitude (a.u.)       :      0.00000
Magnitude (Debye)      :      0.00000

Rotational constants in cm-1:     0.000000     0.000000     0.000000
Rotational constants in MHz :     0.000000     0.000000     0.000000

                             ****ORCA TERMINATED NORMALLY****
TOTAL RUN TIME: 0 days 0 hours 0 minutes 8 seconds 77 msec
