                         Program Version 4.2.0 -  RELEASE  -
|  1> #
|  2> # 34_Se CCSD(T)/Def2-SVP
|  3> #
|  4> ! CCSD(T) Def2-SVP tightscf
|  5>
|  6> *xyz 0 3
|  7>  Se 0.0 0.0 0.0
|  8> *
|  9>
| 10> %maxcore 5000
| 11>
| 12> %pal
| 13> nprocs 24
| 14> end
| 15>
| 16>
| 17>                          ****END OF INPUT****

CARTESIAN COORDINATES (ANGSTROEM)
---------------------------------
  Se     0.000000    0.000000    0.000000

 Total Charge           Charge          ....    0
 Multiplicity           Mult            ....    3
 Number of Electrons    NEL             ....   34
 Basis Dimension        Dim             ....   32

ORBITAL ENERGIES
----------------
                 SPIN UP ORBITALS
  NO   OCC          E(Eh)            E(eV)
   0   1.0000    -460.819472    -12539.5353
   1   1.0000     -60.645537     -1650.2490
   2   1.0000     -54.265012     -1476.6260
   3   1.0000     -54.265012     -1476.6260
   4   1.0000     -54.258852     -1476.4584
   5   1.0000      -8.930855      -243.0209
   6   1.0000      -6.673071      -181.5835
   7   1.0000      -6.673071      -181.5835
   8   1.0000      -6.651542      -180.9977
   9   1.0000      -2.658840       -72.3507
  10   1.0000      -2.658840       -72.3507
  11   1.0000      -2.643811       -71.9417
  12   1.0000      -2.643811       -71.9417
  13   1.0000      -2.638911       -71.8084
  14   1.0000      -0.929407       -25.2904
  15   1.0000      -0.441883       -12.0243
  16   1.0000      -0.441883       -12.0243
  17   1.0000      -0.380302       -10.3486
  18   0.0000       0.370177        10.0730
  19   0.0000       0.593798        16.1581
  20   0.0000       0.593798        16.1581
  21   0.0000       0.634808        17.2740
  22   0.0000       0.634808        17.2740

                 SPIN DOWN ORBITALS
  NO   OCC          E(Eh)            E(eV)
   0   1.0000    -460.812519    -12539.3461
   1   1.0000     -60.642546     -1650.1676
   2   1.0000     -54.257244     -1476.4147
   3   1.0000     -54.255412     -1476.3648
   4   1.0000     -54.255412     -1476.3648
   5   1.0000      -8.917893      -242.6682
   6   1.0000      -6.648508      -180.9151
   7   1.0000      -6.648105      -180.9041
   8   1.0000      -6.648105      -180.9041
   9   1.0000      -2.645764       -71.9949
  10   1.0000      -2.645764       -71.9949
  11   1.0000      -2.636998       -71.7564
  12   1.0000      -2.636998       -71.7564
  13   1.0000      -2.634182       -71.6797
  14   1.0000      -0.735984       -20.0271
  15   1.0000      -0.341465        -9.2917
  16   0.0000       0.012457         0.3390
  17   0.0000       0.012457         0.3390
  18   0.0000       0.409832        11.1521
  19   0.0000       0.707871        19.2622
  20   0.0000       0.714324        19.4377

E(0)                                       ...  -2399.529729838
E(0)                                       ...  -2399.529729838
E(CORR)                                    ...     -0.196124897
E(TOT)                                     ...  -2399.725854736
E(CCSD(T))                                 ...  -2399.729193016

MULLIKEN ATOMIC CHARGES AND SPIN DENSITIES
------------------------------------------
   0 Se:   -0.000000    2.000000
Sum of atomic charges       :   -0.0000000

LOEWDIN ATOMIC CHARGES AND SPIN DENSITIES
-----------------------------------------
   0 Se:   -0.000000    2.000000

FINAL SINGLE POINT ENERGY     -2399.729193016244

DIPOLE MOMENT
-------------
                                X             Y             Z
Electronic contribution:     -0.00000      -0.00000      -0.00000
Nuclear contribution   :      0.00000       0.00000       0.00000
                        -----------------------------------------
Total Dipole Moment    :     -0.00000      -0.00000      -0.00000
                        -----------------------------------------
Magnitude (a.u.)       :      0.00000
Magnitude (Debye)      :      0.00000

Rotational constants in cm-1:     0.000000     0.000000     0.000000
Rotational constants in MHz :     0.000000     0.000000     0.000000

                             ****ORCA TERMINATED NORMALLY****
TOTAL RUN TIME: 0 days 0 hours 0 minutes 8 seconds 346 msec
