                         Program Version 4.2.0 -  RELEASE  -
|  1> #
|  2> # 35_Br CCSD(T)/Def2-SVP
|  3> #
|  4> ! CCSD(T) Def2-SVP tightscf
|  5>
|  6> *xyz 0 2
|  7>  Br 0.0 0.0 0.0
|  8> *
|  9>
| 10> %maxcore 5000
| 11>
| 12> %pal
| 13> nprocs 24
| 14> end
| 15>
| 16>
| 17>                          ****END OF INPUT****

CARTESIAN COORDINATES (ANGSTROEM)
---------------------------------
  Br     0.000000    0.000000    0.000000

 Total Charge           Charge          ....    0
 Multiplicity           Mult            ....    2
 Number of Electrons    NEL             ....   35
 Basis Dimension        Dim             ....   32

ORBITAL ENERGIES
----------------
                 SPIN UP ORBITALS
  NO   OCC          E(Eh)            E(eV)
   0   1.0000    -490.006362    -13333.7510
   1   1.0000     -65.173220     -1773.4535
   2   1.0000     -58.550145     -1593.2305
   3   1.0000     -58.542682     -1593.0274
   4   1.0000     -58.542682     -1593.0274
   5   1.0000      -9.866594      -268.4837
   6   1.0000      -7.494500      -203.9357
   7   1.0000      -7.469589      -203.2579
   8   1.0000      -7.469589      -203.2579
   9   1.0000      -3.228267       -87.8456
  10   1.0000      -3.222460       -87.6876
  11   1.0000      -3.222460       -87.6876
  12   1.0000      -3.205314       -87.2210
  13   1.0000      -3.205314       -87.2210
  14   1.0000      -1.040034       -28.3008
  15   1.0000      -0.515561       -14.0291
  16   1.0000      -0.449044       -12.2191
  17   1.0000      -0.449044       -12.2191
  18   0.0000       0.445987        12.1359
  19   0.0000       0.662459        18.0264
  20   0.0000       0.675534        18.3822
  21   0.0000       0.675534        18.3822
  22   0.0000       0.719491        19.5784

                 SPIN DOWN ORBITALS
  NO   OCC          E(Eh)            E(eV)
   0   1.0000    -490.002015    -13333.6327
   1   1.0000     -65.171063     -1773.3948
   2   1.0000     -58.541491     -1592.9949
   3   1.0000     -58.541491     -1592.9949
   4   1.0000     -58.538886     -1592.9241
   5   1.0000      -9.858472      -268.2627
   6   1.0000      -7.467336      -203.1966
   7   1.0000      -7.467336      -203.1966
   8   1.0000      -7.466099      -203.1629
   9   1.0000      -3.217753       -87.5595
  10   1.0000      -3.214423       -87.4689
  11   1.0000      -3.214423       -87.4689
  12   1.0000      -3.204693       -87.2041
  13   1.0000      -3.204693       -87.2041
  14   1.0000      -0.933974       -25.4147
  15   1.0000      -0.427371       -11.6293
  16   1.0000      -0.427371       -11.6293
  17   0.0000      -0.038828        -1.0566
  18   0.0000       0.467143        12.7116
  19   0.0000       0.726610        19.7721
  20   0.0000       0.726610        19.7721
  21   0.0000       0.755082        20.5468

E(0)                                       ...  -2572.082201922
E(0)                                       ...  -2572.082201922
E(CORR)                                    ...     -0.213227615
E(TOT)                                     ...  -2572.295429537
E(CCSD(T))                                 ...  -2572.298525550

MULLIKEN ATOMIC CHARGES AND SPIN DENSITIES
------------------------------------------
   0 Br:   -0.000000    1.000000
Sum of atomic charges       :   -0.0000000

LOEWDIN ATOMIC CHARGES AND SPIN DENSITIES
-----------------------------------------
   0 Br:   -0.000000    1.000000

FINAL SINGLE POINT ENERGY     -2572.298525549548

DIPOLE MOMENT
-------------
                                X             Y             Z
Electronic contribution:      0.00000      -0.00000       0.00000
Nuclear contribution   :      0.00000       0.00000       0.00000
                        -----------------------------------------
Total Dipole Moment    :      0.00000      -0.00000       0.00000
                        -----------------------------------------
Magnitude (a.u.)       :      0.00000
Magnitude (Debye)      :      0.00000

Rotational constants in cm-1:     0.000000     0.000000     0.000000
Rotational constants in MHz :     0.000000     0.000000     0.000000

                             ****ORCA TERMINATED NORMALLY****
TOTAL RUN TIME: 0 days 0 hours 0 minutes 8 seconds 254 msec
