                         Program Version 4.2.0 -  RELEASE  -
|  1> #
|  2> # 36_Kr CCSD(T)/Def2-SVP
|  3> #
|  4> ! CCSD(T) Def2-SVP tightscf
|  5>
|  6> *xyz 0 1
|  7>  Kr 0.0 0.0 0.0
|  8> *
|  9>
| 10> %maxcore 5000
| 11>
| 12> %pal
| 13> nprocs 24
| 14> end
| 15>
| 16>
| 17>                          ****END OF INPUT****

CARTESIAN COORDINATES (ANGSTROEM)
---------------------------------
  Kr     0.000000    0.000000    0.000000

 Total Charge           Charge          ....    0
 Multiplicity           Mult            ....    1
 Number of Electrons    NEL             ....   36
 Basis Dimension        Dim             ....   32

ORBITAL ENERGIES
----------------

  NO   OCC          E(Eh)            E(eV)
   0   2.0000    -520.105314    -14152.7851
   1   2.0000     -69.873039     -1901.3420
   2   2.0000     -62.997321     -1714.2443
   3   2.0000     -62.997321     -1714.2443
   4   2.0000     -62.997321     -1714.2443
   5   2.0000     -10.839030      -294.9450
   6   2.0000      -8.324889      -226.5318
   7   2.0000      -8.324889      -226.5318
   8   2.0000      -8.324889      -226.5318
   9   2.0000      -3.818618      -103.9099
  10   2.0000      -3.818618      -103.9099
  11   2.0000      -3.818618      -103.9099
  12   2.0000      -3.818618      -103.9099
  13   2.0000      -3.818618      -103.9099
  14   2.0000      -1.144676       -31.1482
  15   2.0000      -0.518284       -14.1032
  16   2.0000      -0.518284       -14.1032
  17   2.0000      -0.518284       -14.1032
  18   0.0000       0.530554        14.4371
  19   0.0000       0.764105        20.7923
  20   0.0000       0.764105        20.7923
  21   0.0000       0.764105        20.7923
  22   0.0000       0.764105        20.7923

E(0)                                       ...  -2751.669878604
E(0)                                       ...  -2751.669878604
E(CORR)                                    ...     -0.233049055
E(TOT)                                     ...  -2751.902927659
E(CCSD(T))                                 ...  -2751.905841857

MULLIKEN ATOMIC CHARGES
-----------------------
   0 Kr:    0.000000
Sum of atomic charges:    0.0000000

LOEWDIN ATOMIC CHARGES
----------------------
   0 Kr:    0.000000

FINAL SINGLE POINT ENERGY     -2751.905841856787

DIPOLE MOMENT
-------------
                                X             Y             Z
Electronic contribution:     -0.00000      -0.00000       0.00000
Nuclear contribution   :      0.00000       0.00000       0.00000
                        -----------------------------------------
Total Dipole Moment    :     -0.00000      -0.00000       0.00000
                        -----------------------------------------
Magnitude (a.u.)       :      0.00000
Magnitude (Debye)      :      0.00000

Rotational constants in cm-1:     0.000000     0.000000     0.000000
Rotational constants in MHz :     0.000000     0.000000     0.000000

                             ****ORCA TERMINATED NORMALLY****
TOTAL RUN TIME: 0 days 0 hours 0 minutes 5 seconds 246 msec
