                         Program Version 4.2.0 -  RELEASE  -
|  1> # input to generate an atomic fitting density for Rb
|  2> # this file is use internally by ORCA
|  3> #
|  4> # atomic ground state (S=2): 1s2 2s2 2p6 3s2 3p6 4s2 3d10 4p6 5s1
|  5> #
|  6> ! RHF AllowRHF def2-SVP def2/J  NoMulliken NoLoewdin NoMayer NoPrintMOs
|  7>
|  8> %output print[p_atomdensfit] 2 end
|  9>
| 10> %scf
| 11>   guess hcore
| 12>   maxiter 1000
| 13>   maxdisk 500000
| 14>   SCFMode Conventional
| 15>   lshift 1.000000
| 16>   hftyp rohf
| 17>   rohf_case sahf
| 18>   rohf_numop   2
| 19>   rohf_norb[1] 1
| 20>   rohf_nel[1]  1
| 21> end
| 22>
| 23> %basis
| 24>   NewECP 37
| 25>     N_core 28
| 26>     lmax f
| 27>     s 3
| 28>       1       5.0365510000     89.5001980000  2
| 29>       2       1.9708490000      0.4937610000  2
| 30>       3       3.8431140000     12.3169000000  2
| 31>     p 3
| 32>       1       4.2583410000     58.5689740000  2
| 33>       2       1.4707090000      0.4317910000  2
| 34>       3       3.8431140000     12.3169000000  2
| 35>     d 3
| 36>       1       3.0231270000     26.2248980000  2
| 37>       2       0.6503830000      0.9628390000  2
| 38>       3       3.8431140000     12.3169000000  2
| 39>     f 1
| 40>       1       3.8431140000    -12.3169000000  2
| 41>   end
| 42>   NewGTO 37
| 43>     s 3
| 44>      1       4.6687885071      0.8745987770
| 45>      2       2.9442428420     -2.0423443311
| 46>      3       0.5817126299      1.3782154547
| 47>     s 1
| 48>      1       0.4514793356      1.0000000000
| 49>     s 1
| 50>      1       0.2160492353      1.0000000000
| 51>     s 1
| 52>      1       0.0320888165      1.0000000000
| 53>     s 1
| 54>      1       0.0138338782      1.0000000000
| 55>     p 4
| 56>      1       5.5234179480      0.0574760346
| 57>      2       3.4120149646     -0.1944898500
| 58>      3       0.7689902179      0.4861923063
| 59>      4       0.3308807179      0.6209747904
| 60>     p 1
| 61>      1       0.1342326844      1.0000000000
| 62>     p 1
| 63>      1       0.0206426796      1.0000000000
| 64>   end
| 65>   NewAuxGTO 37
| 66>     S 1
| 67>      1 1310.72 1.0
| 68>     S 1
| 69>      1  655.36 1.0
| 70>     S 1
| 71>      1  327.68 1.0
| 72>     S 1
| 73>      1  163.84 1.0
| 74>     S 1
| 75>      1   81.82 1.0
| 76>     S 1
| 77>      1   40.96 1.0
| 78>     S 1
| 79>      1   20.48 1.0
| 80>     S 1
| 81>      1   10.24 1.0
| 82>     S 1
| 83>      1    5.12 1.0
| 84>     S 1
| 85>      1    2.56 1.0
| 86>     S 1
| 87>      1    1.28 1.0
| 88>     S 1
| 89>      1    0.64 1.0
| 90>     S 1
| 91>      1    0.32 1.0
| 92>     S 1
| 93>      1    0.16 1.0
| 94>     S 1
| 95>      1    0.08 1.0
| 96>     S 1
| 97>      1    0.04 1.0
| 98>     S 1
| 99>      1    0.02 1.0
|100>     S 1
|101>      1    0.01 1.0
|102>   end
|103> end
|104>
|105> * xyz 0 2
|106> 37  0.0 0.0 0.0
|107> *
|108>
|109>
|110>                          ****END OF INPUT****

CARTESIAN COORDINATES (ANGSTROEM)
---------------------------------
  Rb     0.000000    0.000000    0.000000

 Total Charge           Charge          ....    0
 Multiplicity           Mult            ....    2
 Number of Electrons    NEL             ....    9
 Basis Dimension        Dim             ....   14

ORBITAL ENERGIES
----------------

  NO   OCC          E(Eh)            E(eV)
   0   2.0000      -1.577012       -42.9127
   1   2.0000      -0.808794       -22.0084
   2   2.0000      -0.808794       -22.0084
   3   2.0000      -0.808794       -22.0084
   4   1.0000      -0.140058        -3.8112
   5   0.0000      -0.088481        -2.4077
   6   0.0000      -0.088481        -2.4077
   7   0.0000      -0.088481        -2.4077
   8   0.0000      -0.046721        -1.2713
   9   0.0000       0.280075         7.6212

--------------------------
ATOM BASIS FOR ELEMENT Rb
--------------------------
 NewGTO Rb
 S 7
    1          4.668788507100        -0.292975232121
    2          2.944242842000         0.684149486840
    3          0.581712629900        -0.461677975515
    4          0.451479335600        -0.375501428893
    5          0.216049235300        -0.392582828312
    6          0.032088816500        -0.006830983329
    7          0.013833878200         0.002048869405
 S 7
    1          4.668788507100        -0.072170475240
    2          2.944242842000         0.168530947967
    3          0.581712629900        -0.113728108207
    4          0.451479335600        -0.138128696344
    5          0.216049235300        -0.259386224265
    6          0.032088816500         0.799418654565
    7          0.013833878200         0.337400985128
 S 7
    1          4.668788507100        -0.048561385097
    2          2.944242842000         0.113399506347
    3          0.581712629900        -0.076524291141
    4          0.451479335600        -0.014936814531
    5          0.216049235300        -0.436441472845
    6          0.032088816500         2.373662882934
    7          0.013833878200        -2.240394833382
 S 7
    1          4.668788507100        -0.371632095610
    2          2.944242842000         0.867827309715
    3          0.581712629900        -0.585627502693
    4          0.451479335600        -2.557005257050
    5          0.216049235300         3.324823950368
    6          0.032088816500        -1.427711327756
    7          0.013833878200         0.734625143196
 S 7
    1          4.668788507100        -1.068701619619
    2          2.944242842000         2.495609131713
    3          0.581712629900        -1.684087752414
    4          0.451479335600         0.765318117111
    5          0.216049235300         0.341628737674
    6          0.032088816500        -0.137397959972
    7          0.013833878200         0.072254778811
 P 6
    1          5.523417948000        -0.049859387675
    2          3.412014964600         0.168716316245
    3          0.768990217900        -0.421762754742
    4          0.330880717900        -0.538684045039
    5          0.134232684400        -0.181523434283
    6          0.020642679600        -0.002444219601
 P 6
    1          5.523417948000        -0.007316807088
    2          3.412014964600         0.024758922967
    3          0.768990217900        -0.061893193187
    4          0.330880717900        -0.079051256402
    5          0.134232684400        -0.070962741129
    6          0.020642679600         1.026406983289
 P 6
    1          5.523417948000        -0.062004768258
    2          3.412014964600         0.209814371532
    3          0.768990217900        -0.524501063630
    4          0.330880717900        -0.669903521367
    5          0.134232684400         1.479792346905
    6          0.020642679600        -0.408107232073
 end
  // -----------------------------------------------
  // The basis set
  // -----------------------------------------------
  BAS[ATNO] = new BFNGauss[NSH];
  // Basis function   1 L = s
  InitBFNGauss(BAS[ATNO][  0]);
  BAS[ATNO][  0].l  = 0;
  BAS[ATNO][  0].ng = 7;
  BAS[ATNO][  0].a[  0] =         4.668788507100;     BAS[ATNO][  0].d[  0] =        -0.292975232121;
  BAS[ATNO][  0].a[  1] =         2.944242842000;     BAS[ATNO][  0].d[  1] =         0.684149486840;
  BAS[ATNO][  0].a[  2] =         0.581712629900;     BAS[ATNO][  0].d[  2] =        -0.461677975515;
  BAS[ATNO][  0].a[  3] =         0.451479335600;     BAS[ATNO][  0].d[  3] =        -0.375501428893;
  BAS[ATNO][  0].a[  4] =         0.216049235300;     BAS[ATNO][  0].d[  4] =        -0.392582828312;
  BAS[ATNO][  0].a[  5] =         0.032088816500;     BAS[ATNO][  0].d[  5] =        -0.006830983329;
  BAS[ATNO][  0].a[  6] =         0.013833878200;     BAS[ATNO][  0].d[  6] =         0.002048869405;

FINAL SINGLE POINT ENERGY       -23.802268383168

DIPOLE MOMENT
-------------
                                X             Y             Z
Electronic contribution:      0.00000       0.00000       0.00000
Nuclear contribution   :      0.00000       0.00000       0.00000
                        -----------------------------------------
Total Dipole Moment    :      0.00000       0.00000       0.00000
                        -----------------------------------------
Magnitude (a.u.)       :      0.00000
Magnitude (Debye)      :      0.00000

Rotational constants in cm-1:     0.000000     0.000000     0.000000
Rotational constants in MHz :     0.000000     0.000000     0.000000

                             ****ORCA TERMINATED NORMALLY****
TOTAL RUN TIME: 0 days 0 hours 0 minutes 1 seconds 135 msec
