                         Program Version 4.2.0 -  RELEASE  -
|  1> #
|  2> # 37_Rb CCSD(T)/Def2-SVP
|  3> #
|  4> ! CCSD(T) Def2-SVP tightscf
|  5>
|  6> *xyz 0 2
|  7>  Rb 0.0 0.0 0.0
|  8> *
|  9>
| 10> %maxcore 5000
| 11>
| 12> %pal
| 13> nprocs 24
| 14> end
| 15>
| 16> %method
| 17> NewNCore Rb 28 end
| 18> end
| 19>
| 20>
| 21>                          ****END OF INPUT****

CARTESIAN COORDINATES (ANGSTROEM)
---------------------------------
  Rb     0.000000    0.000000    0.000000

 Total Charge           Charge          ....    0
 Multiplicity           Mult            ....    2
 Number of Electrons    NEL             ....    9
 Basis Dimension        Dim             ....   24

ORBITAL ENERGIES
----------------
                 SPIN UP ORBITALS
  NO   OCC          E(Eh)            E(eV)
   0   1.0000      -1.579070       -42.9687
   1   1.0000      -0.809937       -22.0395
   2   1.0000      -0.809937       -22.0395
   3   1.0000      -0.809937       -22.0395
   4   1.0000      -0.140276        -3.8171
   5   0.0000       0.019179         0.5219
   6   0.0000       0.019179         0.5219
   7   0.0000       0.019179         0.5219
   8   0.0000       0.057073         1.5530
   9   0.0000       0.071795         1.9536

                 SPIN DOWN ORBITALS
  NO   OCC          E(Eh)            E(eV)
   0   1.0000      -1.575653       -42.8757
   1   1.0000      -0.808347       -21.9962
   2   1.0000      -0.808347       -21.9962
   3   1.0000      -0.808347       -21.9962
   4   0.0000       0.010005         0.2722
   5   0.0000       0.044823         1.2197
   6   0.0000       0.044823         1.2197
   7   0.0000       0.044823         1.2197
   8   0.0000       0.083510         2.2724

E(0)                                       ...    -23.802374017
E(0)                                       ...    -23.802374017
E(CORR)                                    ...     -0.060025444
E(TOT)                                     ...    -23.862399462
E(CCSD(T))                                 ...    -23.863492455

MULLIKEN ATOMIC CHARGES AND SPIN DENSITIES
------------------------------------------
   0 Rb:   -0.000000    1.000000
Sum of atomic charges       :   -0.0000000

LOEWDIN ATOMIC CHARGES AND SPIN DENSITIES
-----------------------------------------
   0 Rb:   -0.000000    1.000000

FINAL SINGLE POINT ENERGY       -23.863492455099

DIPOLE MOMENT
-------------
                                X             Y             Z
Electronic contribution:      0.00000      -0.00000       0.00000
Nuclear contribution   :      0.00000       0.00000       0.00000
                        -----------------------------------------
Total Dipole Moment    :      0.00000      -0.00000       0.00000
                        -----------------------------------------
Magnitude (a.u.)       :      0.00000
Magnitude (Debye)      :      0.00000

Rotational constants in cm-1:     0.000000     0.000000     0.000000
Rotational constants in MHz :     0.000000     0.000000     0.000000

                             ****ORCA TERMINATED NORMALLY****
TOTAL RUN TIME: 0 days 0 hours 0 minutes 9 seconds 582 msec
