                         Program Version 4.2.0 -  RELEASE  -
|  1> #
|  2> # 38_Sr CCSD(T)/Def2-SVP
|  3> #
|  4> ! CCSD(T) Def2-SVP tightscf
|  5>
|  6> *xyz 0 1
|  7>  Sr 0.0 0.0 0.0
|  8> *
|  9>
| 10> %maxcore 5000
| 11>
| 12> %pal
| 13> nprocs 15
| 14> end
| 15>
| 16> %method
| 17> NewNCore Sr 28 end
| 18> end
| 19>
| 20>
| 21>                          ****END OF INPUT****

CARTESIAN COORDINATES (ANGSTROEM)
---------------------------------
  Sr     0.000000    0.000000    0.000000

 Total Charge           Charge          ....    0
 Multiplicity           Mult            ....    1
 Number of Electrons    NEL             ....   10
 Basis Dimension        Dim             ....   23

ORBITAL ENERGIES
----------------

  NO   OCC          E(Eh)            E(eV)
   0   2.0000      -1.961175       -53.3663
   1   2.0000      -1.100414       -29.9438
   2   2.0000      -1.100414       -29.9438
   3   2.0000      -1.100414       -29.9438
   4   2.0000      -0.180974        -4.9246
   5   0.0000       0.030123         0.8197
   6   0.0000       0.030123         0.8197
   7   0.0000       0.030123         0.8197
   8   0.0000       0.081062         2.2058
   9   0.0000       0.081062         2.2058

E(0)                                       ...    -30.338782094
E(0)                                       ...    -30.338782094
E(CORR)                                    ...     -0.088232149
E(TOT)                                     ...    -30.427014242
E(CCSD(T))                                 ...    -30.428663448

MULLIKEN ATOMIC CHARGES
-----------------------
   0 Sr:   -0.000000
Sum of atomic charges:   -0.0000000

LOEWDIN ATOMIC CHARGES
----------------------
   0 Sr:   -0.000000

FINAL SINGLE POINT ENERGY       -30.428663447698

DIPOLE MOMENT
-------------
                                X             Y             Z
Electronic contribution:     -0.00000      -0.00000       0.00000
Nuclear contribution   :      0.00000       0.00000       0.00000
                        -----------------------------------------
Total Dipole Moment    :     -0.00000      -0.00000       0.00000
                        -----------------------------------------
Magnitude (a.u.)       :      0.00000
Magnitude (Debye)      :      0.00000

Rotational constants in cm-1:     0.000000     0.000000     0.000000
Rotational constants in MHz :     0.000000     0.000000     0.000000

                             ****ORCA TERMINATED NORMALLY****
TOTAL RUN TIME: 0 days 0 hours 0 minutes 3 seconds 52 msec
