                         Program Version 4.2.0 -  RELEASE  -
|  1> # input to generate an atomic fitting density for Sr
|  2> # this file is use internally by ORCA
|  3> #
|  4> # atomic ground state (S=1): 1s2 2s2 2p6 3s2 3p6 4s2 3d10 4p6 5s2
|  5> #
|  6> ! RHF AllowRHF def2-SVP def2/J  NoMulliken NoLoewdin NoMayer NoPrintMOs
|  7>
|  8> %output print[p_atomdensfit] 2 end
|  9>
| 10> %scf
| 11>   guess hcore
| 12>   maxiter 1000
| 13>   maxdisk 500000
| 14>   SCFMode Conventional
| 15>   lshift 1.000000
| 16>   hftyp rohf
| 17>   rohf_case sahf
| 18>   rohf_numop   2
| 19>   rohf_norb[1] 1
| 20>   rohf_nel[1]  2
| 21> end
| 22>
| 23> %basis
| 24>   NewECP 38
| 25>     N_core 28
| 26>     lmax f
| 27>     s 3
| 28>       1       7.4000740000    135.4794300000  2
| 29>       2       3.6063790000     17.5344630000  2
| 30>       3       4.6339750000     15.8059920000  2
| 31>     p 3
| 32>       1       6.4848680000     88.3597090000  2
| 33>       2       3.2880530000     15.3943720000  2
| 34>       3       4.6339750000     15.8059920000  2
| 35>     d 3
| 36>       1       4.6228410000     29.8889870000  2
| 37>       2       2.2469040000      6.6594140000  2
| 38>       3       4.6339750000     15.8059920000  2
| 39>     f 1
| 40>       1       4.6339750000    -15.8059920000  2
| 41>   end
| 42>   NewGTO 38
| 43>     s 3
| 44>      1       5.9276428767      0.4742404279
| 45>      2       3.0691274814     -1.5612926674
| 46>      3       0.7067548803      1.4941851994
| 47>     s 1
| 48>      1       0.3382402428      1.0000000000
| 49>     s 1
| 50>      1       0.0617688692      1.0000000000
| 51>     s 1
| 52>      1       0.0257675931      1.0000000000
| 53>     p 4
| 54>      1       2.4324720000     -0.3805302992
| 55>      2       1.6642340000      0.3878219260
| 56>      3       0.5945547186      0.6133805370
| 57>      4       0.2615262200      0.3617723182
| 58>     p 1
| 59>      1       0.1025881404      1.0000000000
| 60>     p 1
| 61>      1       0.0332234040      1.0000000000
| 62>   end
| 63>   NewAuxGTO 38
| 64>     S 1
| 65>      1 1310.72 1.0
| 66>     S 1
| 67>      1  655.36 1.0
| 68>     S 1
| 69>      1  327.68 1.0
| 70>     S 1
| 71>      1  163.84 1.0
| 72>     S 1
| 73>      1   81.82 1.0
| 74>     S 1
| 75>      1   40.96 1.0
| 76>     S 1
| 77>      1   20.48 1.0
| 78>     S 1
| 79>      1   10.24 1.0
| 80>     S 1
| 81>      1    5.12 1.0
| 82>     S 1
| 83>      1    2.56 1.0
| 84>     S 1
| 85>      1    1.28 1.0
| 86>     S 1
| 87>      1    0.64 1.0
| 88>     S 1
| 89>      1    0.32 1.0
| 90>     S 1
| 91>      1    0.16 1.0
| 92>     S 1
| 93>      1    0.08 1.0
| 94>     S 1
| 95>      1    0.04 1.0
| 96>     S 1
| 97>      1    0.02 1.0
| 98>     S 1
| 99>      1    0.01 1.0
|100>   end
|101> end
|102>
|103> * xyz 0 1
|104> 38  0.0 0.0 0.0
|105> *
|106>
|107>
|108>                          ****END OF INPUT****

CARTESIAN COORDINATES (ANGSTROEM)
---------------------------------
  Sr     0.000000    0.000000    0.000000

 Total Charge           Charge          ....    0
 Multiplicity           Mult            ....    1
 Number of Electrons    NEL             ....   10
 Basis Dimension        Dim             ....   13

ORBITAL ENERGIES
----------------

  NO   OCC          E(Eh)            E(eV)
   0   2.0000      -1.940396       -52.8009
   1   2.0000      -1.100406       -29.9436
   2   2.0000      -1.100406       -29.9436
   3   2.0000      -1.100406       -29.9436
   4   2.0000      -0.201741        -5.4897
   5   0.0000       0.030127         0.8198
   6   0.0000       0.030127         0.8198
   7   0.0000       0.030127         0.8198
   8   0.0000       0.126689         3.4474
   9   0.0000       0.317282         8.6337

--------------------------
ATOM BASIS FOR ELEMENT Sr
--------------------------
 NewGTO Sr
 S 6
    1          5.927642876700        -0.195942684333
    2          3.069127481400         0.645081815640
    3          0.706754880300        -0.617354914589
    4          0.338240242800        -0.683653495940
    5          0.061768869200         0.026557687719
    6          0.025767593100         0.078621014863
 S 6
    1          5.927642876700        -0.036323072355
    2          3.069127481400         0.119582690951
    3          0.706754880300        -0.114442788757
    4          0.338240242800        -0.376574227695
    5          0.061768869200         0.563679388558
    6          0.025767593100         0.613518953964
 S 6
    1          5.927642876700        -0.065094885773
    2          3.069127481400         0.214305153808
    3          0.706754880300        -0.205093891530
    4          0.338240242800        -0.631667840174
    5          0.061768869200         2.543884953419
    6          0.025767593100        -2.148502503855
 S 6
    1          5.927642876700        -0.727444068895
    2          3.069127481400         2.394888803003
    3          0.706754880300        -2.291951713073
    4          0.338240242800         1.685617770688
    5          0.061768869200        -0.571032104944
    6          0.025767593100         0.276349710928
 P 6
    1          2.432472000000         0.371336584473
    2          1.664234000000        -0.378452043601
    3          0.594554718600        -0.598561097685
    4          0.261526220000        -0.353031801356
    5          0.102588140400        -0.042113985390
    6          0.033223404000        -0.000241598000
 P 6
    1          2.432472000000         0.080619706967
    2          1.664234000000        -0.082164521709
    3          0.594554718600        -0.129951699658
    4          0.261526220000        -0.076645613617
    5          0.102588140400        -0.045472267076
    6          0.033223404000         1.047799796599
 P 6
    1          2.432472000000         0.293353868249
    2          1.664234000000        -0.298975041995
    3          0.594554718600        -0.472859989378
    4          0.261526220000        -0.278893189826
    5          0.102588140400         1.695022594313
    6          0.033223404000        -0.984455587487
 end
  // -----------------------------------------------
  // The basis set
  // -----------------------------------------------
  BAS[ATNO] = new BFNGauss[NSH];
  // Basis function   1 L = s
  InitBFNGauss(BAS[ATNO][  0]);
  BAS[ATNO][  0].l  = 0;
  BAS[ATNO][  0].ng = 6;
  BAS[ATNO][  0].a[  0] =         5.927642876700;     BAS[ATNO][  0].d[  0] =         0.195942684333;
  BAS[ATNO][  0].a[  1] =         3.069127481400;     BAS[ATNO][  0].d[  1] =        -0.645081815640;
  BAS[ATNO][  0].a[  2] =         0.706754880300;     BAS[ATNO][  0].d[  2] =         0.617354914589;
  BAS[ATNO][  0].a[  3] =         0.338240242800;     BAS[ATNO][  0].d[  3] =         0.683653495940;
  BAS[ATNO][  0].a[  4] =         0.061768869200;     BAS[ATNO][  0].d[  4] =        -0.026557687719;
  BAS[ATNO][  0].a[  5] =         0.025767593100;     BAS[ATNO][  0].d[  5] =        -0.078621014863;

FINAL SINGLE POINT ENERGY       -30.338782089596

DIPOLE MOMENT
-------------
                                X             Y             Z
Electronic contribution:      0.00000      -0.00000       0.00000
Nuclear contribution   :      0.00000       0.00000       0.00000
                        -----------------------------------------
Total Dipole Moment    :      0.00000      -0.00000       0.00000
                        -----------------------------------------
Magnitude (a.u.)       :      0.00000
Magnitude (Debye)      :      0.00000

Rotational constants in cm-1:     0.000000     0.000000     0.000000
Rotational constants in MHz :     0.000000     0.000000     0.000000

                             ****ORCA TERMINATED NORMALLY****
TOTAL RUN TIME: 0 days 0 hours 0 minutes 0 seconds 991 msec
