                         Program Version 4.2.0 -  RELEASE  -
|  1> # input to generate an atomic fitting density for  Y
|  2> # this file is use internally by ORCA
|  3> #
|  4> # atomic ground state (S=2): 1s2 2s2 2p6 3s2 3p6 4s2 3d10 4p6 4d1 5s2
|  5> #
|  6> ! RHF AllowRHF def2-SVP def2/J  NoMulliken NoLoewdin NoMayer NoPrintMOs
|  7>
|  8> %output print[p_atomdensfit] 2 end
|  9>
| 10> %scf
| 11>   guess hcore
| 12>   maxiter 1000
| 13>   maxdisk 500000
| 14>   SCFMode Conventional
| 15>   lshift 0.600000
| 16>   hftyp rohf
| 17>   rohf_case sahf
| 18>   rohf_numop   3
| 19>   rohf_norb[1] 5,1
| 20>   rohf_nel[1]  1,2
| 21> end
| 22>
| 23> %basis
| 24>   NewECP 39
| 25>     N_core 28
| 26>     lmax f
| 27>     s 4
| 28>       1       7.4880494000    135.1538441000  2
| 29>       2       3.7440247000     15.5524413000  2
| 30>       3       6.5842120000     19.1221981000  2
| 31>       4       3.2921060000      2.4363754000  2
| 32>     p 4
| 33>       1       6.4453772000     87.7849917000  2
| 34>       2       3.2226886000     11.5640660000  2
| 35>       3       6.5842120000     19.1221981000  2
| 36>       4       3.2921060000      2.4363754000  2
| 37>     d 4
| 38>       1       4.6584472000     29.7010007000  2
| 39>       2       2.3292236000      5.5399685000  2
| 40>       3       6.5842120000     19.1221981000  2
| 41>       4       3.2921060000      2.4363754000  2
| 42>     f 2
| 43>       1       6.5842120000    -19.1221981000  2
| 44>       2       3.2921060000     -2.4363754000  2
| 45>   end
| 46>   NewGTO 39
| 47>     s 3
| 48>      1       5.1329580000     -1.3831975904
| 49>      2       4.2401920000      1.9413448106
| 50>      3       1.2982800000      0.4407785893
| 51>     s 1
| 52>      1       0.8290495435      1.0000000000
| 53>     s 1
| 54>      1       0.3475275891      1.0000000000
| 55>     s 1
| 56>      1       0.0684188786      1.0000000000
| 57>     s 1
| 58>      1       0.0273239929      1.0000000000
| 59>     p 4
| 60>      1       2.7279200000     -0.3995141269
| 61>      2       1.9790500000      0.3493433749
| 62>      3       0.7998088680      0.5372774332
| 63>      4       0.3840939735      0.4760499504
| 64>     p 1
| 65>      1       0.1617358226      1.0000000000
| 66>     p 1
| 67>      1       0.0300000000      1.0000000000
| 68>     d 4
| 69>      1       3.9030833060     -0.0110855446
| 70>      2       1.1363234302      0.2165374504
| 71>      3       0.4561704388      0.4582522588
| 72>      4       0.1747095075      0.4950916179
| 73>     d 1
| 74>      1       0.0619787966      1.0000000000
| 75>   end
| 76>   NewAuxGTO 39
| 77>     S 1
| 78>      1 1310.72 1.0
| 79>     S 1
| 80>      1  655.36 1.0
| 81>     S 1
| 82>      1  327.68 1.0
| 83>     S 1
| 84>      1  163.84 1.0
| 85>     S 1
| 86>      1   81.82 1.0
| 87>     S 1
| 88>      1   40.96 1.0
| 89>     S 1
| 90>      1   20.48 1.0
| 91>     S 1
| 92>      1   10.24 1.0
| 93>     S 1
| 94>      1    5.12 1.0
| 95>     S 1
| 96>      1    2.56 1.0
| 97>     S 1
| 98>      1    1.28 1.0
| 99>     S 1
|100>      1    0.64 1.0
|101>     S 1
|102>      1    0.32 1.0
|103>     S 1
|104>      1    0.16 1.0
|105>     S 1
|106>      1    0.08 1.0
|107>     S 1
|108>      1    0.04 1.0
|109>     S 1
|110>      1    0.02 1.0
|111>     S 1
|112>      1    0.01 1.0
|113>   end
|114> end
|115>
|116> * xyz 0 2
|117> 39  0.0 0.0 0.0
|118> *
|119>
|120>
|121>                          ****END OF INPUT****

CARTESIAN COORDINATES (ANGSTROEM)
---------------------------------
   Y     0.000000    0.000000    0.000000

 Total Charge           Charge          ....    0
 Multiplicity           Mult            ....    2
 Number of Electrons    NEL             ....   11
 Basis Dimension        Dim             ....   24

ORBITAL ENERGIES
----------------

  NO   OCC          E(Eh)            E(eV)
   0   2.0000      -2.157267       -58.7022
   1   2.0000      -1.228468       -33.4283
   2   2.0000      -1.214998       -33.0618
   3   2.0000      -1.213299       -33.0155
   4   0.2000      -0.204719        -5.5707
   5   0.2000      -0.130244        -3.5441
   6   0.2000      -0.123071        -3.3489
   7   0.2000      -0.122369        -3.3298
   8   0.2000      -0.096781        -2.6336
   9   2.0000      -0.110354        -3.0029
  10   0.0000       0.043874         1.1939
  11   0.0000       0.051785         1.4091
  12   0.0000       0.051899         1.4122
  13   0.0000       0.157486         4.2854
  14   0.0000       0.291502         7.9322

CleanUpVectors: The p-vectors have cracked symmetry
CleanUpVectors: The p-vectors have cracked symmetry
CleanUpVectors: The p-vectors have cracked symmetry
CleanUpVectors: The d-vectors have cracked symmetry at i=5
CleanUpVectors: The d-vectors have cracked symmetry at i=6
CleanUpVectors: The d-vectors have cracked symmetry at i=7
CleanUpVectors: The d-vectors have cracked symmetry at i=8
CleanUpVectors: The d-vectors have cracked symmetry at i=9
CleanUpVectors: The p-vectors have cracked symmetry
CleanUpVectors: The p-vectors have cracked symmetry
CleanUpVectors: The p-vectors have cracked symmetry
CleanUpVectors: The d-vectors have cracked symmetry at i=14
CleanUpVectors: The d-vectors have cracked symmetry at i=15
CleanUpVectors: The d-vectors have cracked symmetry at i=16
CleanUpVectors: The d-vectors have cracked symmetry at i=17
CleanUpVectors: The d-vectors have cracked symmetry at i=18
CleanUpVectors: The p-vectors have cracked symmetry
CleanUpVectors: The p-vectors have cracked symmetry
CleanUpVectors: The p-vectors have cracked symmetry
--------------------------
ATOM BASIS FOR ELEMENT  Y
--------------------------
 NewGTO  Y
 S 7
    1          5.132958000000        -0.905539050224
    2          4.240192000000         1.270941728173
    3          1.298280000000         0.288564864401
    4          0.829049543500        -0.903159607408
    5          0.347527589100        -0.558185644084
    6          0.068418878600        -0.027077291845
    7          0.027323992900         0.007265515002
 P 18
    1          2.727920000000         0.134209139330
    2          1.979050000000        -0.117355233568
    3          0.799808868000        -0.180488090498
    4          0.384093973500        -0.159919887232
    5          2.727920000000        -0.087740636315
    6          1.979050000000         0.076722218171
    7          0.799808868000         0.117995987358
    8          0.384093973500         0.104549308156
    9          2.727920000000         0.332111929766
   10          1.979050000000        -0.290405506532
   11          0.799808868000        -0.446633130458
   12          0.384093973500        -0.395735362149
   13          0.161735822600        -0.040957043367
   14          0.161735822600         0.026776097847
   15          0.161735822600        -0.101351687209
   16          0.030000000000         0.000524341659
   17          0.030000000000        -0.000342793874
   18          0.030000000000         0.001297528031
 S 7
    1          5.132958000000        -0.289910891028
    2          4.240192000000         0.406895593038
    3          1.298280000000         0.092384858430
    4          0.829049543500        -0.329008266718
    5          0.347527589100        -0.370130282872
    6          0.068418878600         0.558191457381
    7          0.027323992900         0.614838996095
 S 7
    1          5.132958000000        -0.223314661207
    2          4.240192000000         0.313426484888
    3          1.298280000000         0.071162877972
    4          0.829049543500        -0.131828765551
    5          0.347527589100        -0.761113514502
    6          0.068418878600         2.533178009443
    7          0.027323992900        -2.086050590987
 S 7
    1          5.132958000000        -1.765620133710
    2          4.240192000000         2.478082312937
    3          1.298280000000         0.562643802431
    4          0.829049543500        -4.079367231303
    5          0.347527589100         3.626562719694
    6          0.068418878600        -1.617744976202
    7          0.027323992900         0.721266883026
 S 7
    1          5.132958000000        -3.038497304280
    2          4.240192000000         4.264590261454
    3          1.298280000000         0.968266981282
    4          0.829049543500        -2.280478403325
    5          0.347527589100         1.052706591424
    6          0.068418878600        -0.325679243291
    7          0.027323992900         0.145556325357
 D 18
    1          5.132958000000         0.000132357766
    2          4.240192000000        -0.000224879607
    3          1.298280000000        -0.000166757371
    4          0.829049543500        -0.000097982941
    5          0.347527589100         0.009497063576
    6          0.068418878600         0.168469418483
    7          0.027323992900        -1.186401010478
    8          3.903083306000         0.002299040475
    9          1.136323430200        -0.044907885076
   10          0.456170438800        -0.095037323733
   11          0.174709507500        -0.102677469591
   12          3.903083306000         0.000950492208
   13          1.136323430200        -0.018566265059
   14          0.456170438800        -0.039291276798
   15          0.174709507500        -0.042449941982
   16          3.903083306000        -0.004346281912
   17          1.136323430200         0.084897299853
   18          0.456170438800         0.179665823864
 P 18
    1          2.727920000000         0.022529545000
    2          1.979050000000        -0.019700297825
    3          0.799808868000        -0.030298343147
    4          0.384093973500        -0.026845580813
    5          2.727920000000        -0.014728926987
    6          1.979050000000         0.012879276891
    7          0.799808868000         0.019807860480
    8          0.384093973500         0.017550580792
    9          2.727920000000         0.055751275241
   10          1.979050000000        -0.048750062479
   11          0.799808868000        -0.074975826992
   12          0.384093973500        -0.066431672940
   13          0.161735822600        -0.014453099218
   14          0.161735822600         0.009448865617
   15          0.161735822600        -0.035765423252
   16          0.030000000000         0.372441739998
   17          0.030000000000        -0.243487704495
   18          0.030000000000         0.921638761811
 D 18
    1          5.132958000000         0.000070826457
    2          4.240192000000        -0.000120336164
    3          1.298280000000        -0.000089234158
    4          0.829049543500         0.001333496686
    5          0.347527589100        -0.005093201984
    6          0.068418878600         0.060391587711
    7          0.027323992900        -0.154827386776
    8          3.903083306000         0.000711779271
    9          1.136323430200        -0.013903409731
   10          0.456170438800        -0.029423404138
   11          0.174709507500        -0.031788781133
   12          3.903083306000        -0.008312992955
   13          1.136323430200         0.162380321811
   14          0.456170438800         0.343641015063
   15          0.174709507500         0.371266661227
   16          3.903083306000        -0.002048568767
   17          1.136323430200         0.040015341946
   18          0.456170438800         0.084683369087
 P 18
    1          2.727920000000         0.142689431638
    2          1.979050000000        -0.124770575693
    3          0.799808868000        -0.191892617590
    4          0.384093973500        -0.170024768288
    5          2.727920000000        -0.093284716599
    6          1.979050000000         0.081570076072
    7          0.799808868000         0.125451816886
    8          0.384093973500         0.111155480420
    9          2.727920000000         0.353097134330
   10          1.979050000000        -0.308755401296
   11          0.799808868000        -0.474854602703
   12          0.384093973500        -0.420740749742
   13          0.161735822600         0.545489904788
   14          0.161735822600        -0.356619762176
   15          0.161735822600         1.349861163340
   16          0.030000000000        -0.190804050673
   17          0.030000000000         0.124740154815
   18          0.030000000000        -0.472160851283
 end
  // -----------------------------------------------
  // The basis set
  // -----------------------------------------------
  BAS[ATNO] = new BFNGauss[NSH];
  // Basis function   1 L = s
  InitBFNGauss(BAS[ATNO][  0]);
  BAS[ATNO][  0].l  = 0;
  BAS[ATNO][  0].ng = 7;
  BAS[ATNO][  0].a[  0] =         5.132958000000;     BAS[ATNO][  0].d[  0] =        -0.905539050224;
  BAS[ATNO][  0].a[  1] =         4.240192000000;     BAS[ATNO][  0].d[  1] =         1.270941728173;
  BAS[ATNO][  0].a[  2] =         1.298280000000;     BAS[ATNO][  0].d[  2] =         0.288564864401;
  BAS[ATNO][  0].a[  3] =         0.829049543500;     BAS[ATNO][  0].d[  3] =        -0.903159607408;
  BAS[ATNO][  0].a[  4] =         0.347527589100;     BAS[ATNO][  0].d[  4] =        -0.558185644084;
  BAS[ATNO][  0].a[  5] =         0.068418878600;     BAS[ATNO][  0].d[  5] =        -0.027077291845;
  BAS[ATNO][  0].a[  6] =         0.027323992900;     BAS[ATNO][  0].d[  6] =         0.007265515002;

FINAL SINGLE POINT ENERGY       -37.644760024289

DIPOLE MOMENT
-------------
                                X             Y             Z
Electronic contribution:     -0.00000       0.00000       0.00000
Nuclear contribution   :      0.00000       0.00000       0.00000
                        -----------------------------------------
Total Dipole Moment    :     -0.00000       0.00000       0.00000
                        -----------------------------------------
Magnitude (a.u.)       :      0.00000
Magnitude (Debye)      :      0.00000

Rotational constants in cm-1:     0.000000     0.000000     0.000000
Rotational constants in MHz :     0.000000     0.000000     0.000000

                             ****ORCA TERMINATED NORMALLY****
TOTAL RUN TIME: 0 days 0 hours 0 minutes 3 seconds 959 msec
