                         Program Version 4.2.0 -  RELEASE  -
|  1> #
|  2> # 39_Y CCSD(T)/Def2-SVP
|  3> #
|  4> ! CCSD(T) Def2-SVP tightscf
|  5>
|  6> *xyz 0 2
|  7>  Y 0.0 0.0 0.0
|  8> *
|  9>
| 10> %maxcore 5000
| 11>
| 12> %pal
| 13> nprocs 24
| 14> end
| 15>
| 16>
| 17>                          ****END OF INPUT****

CARTESIAN COORDINATES (ANGSTROEM)
---------------------------------
   Y     0.000000    0.000000    0.000000

 Total Charge           Charge          ....    0
 Multiplicity           Mult            ....    2
 Number of Electrons    NEL             ....   11
 Basis Dimension        Dim             ....   31

ORBITAL ENERGIES
----------------
                 SPIN UP ORBITALS
  NO   OCC          E(Eh)            E(eV)
   0   1.0000      -2.270753       -61.7903
   1   1.0000      -1.331429       -36.2300
   2   1.0000      -1.331428       -36.2300
   3   1.0000      -1.309835       -35.6424
   4   1.0000      -0.236196        -6.4272
   5   1.0000      -0.210917        -5.7394
   6   0.0000       0.022208         0.6043
   7   0.0000       0.022208         0.6043
   8   0.0000       0.030892         0.8406
   9   0.0000       0.082519         2.2455
  10   0.0000       0.086451         2.3525

                 SPIN DOWN ORBITALS
  NO   OCC          E(Eh)            E(eV)
   0   1.0000      -2.242443       -61.0200
   1   1.0000      -1.305211       -35.5166
   2   1.0000      -1.271101       -34.5884
   3   1.0000      -1.271099       -34.5884
   4   1.0000      -0.195785        -5.3276
   5   0.0000       0.018814         0.5120
   6   0.0000       0.036108         0.9826
   7   0.0000       0.036109         0.9826
   8   0.0000       0.084464         2.2984
   9   0.0000       0.094251         2.5647

E(0)                                       ...    -37.810218041
E(0)                                       ...    -37.810218041
E(CORR)                                    ...     -0.148597842
E(TOT)                                     ...    -37.958815884
E(CCSD(T))                                 ...    -37.963346521

MULLIKEN ATOMIC CHARGES AND SPIN DENSITIES
------------------------------------------
   0  Y:   -0.000000    1.000000
Sum of atomic charges       :   -0.0000000

LOEWDIN ATOMIC CHARGES AND SPIN DENSITIES
-----------------------------------------
   0  Y:   -0.000000    1.000000

FINAL SINGLE POINT ENERGY       -37.963346520941

DIPOLE MOMENT
-------------
                                X             Y             Z
Electronic contribution:      0.00000       0.00000       0.00000
Nuclear contribution   :      0.00000       0.00000       0.00000
                        -----------------------------------------
Total Dipole Moment    :      0.00000       0.00000       0.00000
                        -----------------------------------------
Magnitude (a.u.)       :      0.00000
Magnitude (Debye)      :      0.00000

Rotational constants in cm-1:     0.000000     0.000000     0.000000
Rotational constants in MHz :     0.000000     0.000000     0.000000

                             ****ORCA TERMINATED NORMALLY****
TOTAL RUN TIME: 0 days 0 hours 0 minutes 22 seconds 418 msec
