                         Program Version 4.2.0 -  RELEASE  -
|  1> #
|  2> # 40_Zr CCSD(T)/Def2-SVP
|  3> #
|  4> ! CCSD(T) Def2-SVP tightscf
|  5>
|  6> *xyz 0 3
|  7>  Zr 0.0 0.0 0.0
|  8> *
|  9>
| 10> %maxcore 5000
| 11>
| 12> %pal
| 13> nprocs 24
| 14> end
| 15>
| 16>
| 17>                          ****END OF INPUT****

CARTESIAN COORDINATES (ANGSTROEM)
---------------------------------
  Zr     0.000000    0.000000    0.000000

 Total Charge           Charge          ....    0
 Multiplicity           Mult            ....    3
 Number of Electrons    NEL             ....   12
 Basis Dimension        Dim             ....   31

ORBITAL ENERGIES
----------------
                 SPIN UP ORBITALS
  NO   OCC          E(Eh)            E(eV)
   0   1.0000      -2.569692       -69.9249
   1   1.0000      -1.560210       -42.4555
   2   1.0000      -1.559690       -42.4413
   3   1.0000      -1.559196       -42.4279
   4   1.0000      -0.322354        -8.7717
   5   1.0000      -0.322286        -8.7698
   6   1.0000      -0.231720        -6.3054
   7   0.0000       0.023719         0.6454
   8   0.0000       0.024352         0.6626
   9   0.0000       0.025073         0.6823
  10   0.0000       0.077422         2.1068
  11   0.0000       0.077477         2.1083

                 SPIN DOWN ORBITALS
  NO   OCC          E(Eh)            E(eV)
   0   1.0000      -2.492027       -67.8115
   1   1.0000      -1.452708       -39.5302
   2   1.0000      -1.451877       -39.5076
   3   1.0000      -1.450929       -39.4818
   4   1.0000      -0.197076        -5.3627
   5   0.0000       0.029202         0.7946
   6   0.0000       0.030105         0.8192
   7   0.0000       0.030958         0.8424
   8   0.0000       0.100781         2.7424
   9   0.0000       0.101371         2.7584

E(0)                                       ...    -46.431673635
E(0)                                       ...    -46.431673635
E(CORR)                                    ...     -0.177439573
E(TOT)                                     ...    -46.609113208
E(CCSD(T))                                 ...    -46.614624775

MULLIKEN ATOMIC CHARGES AND SPIN DENSITIES
------------------------------------------
   0 Zr:   -0.000000    2.000000
Sum of atomic charges       :   -0.0000000

LOEWDIN ATOMIC CHARGES AND SPIN DENSITIES
-----------------------------------------
   0 Zr:   -0.000000    2.000000

FINAL SINGLE POINT ENERGY       -46.614624775098

DIPOLE MOMENT
-------------
                                X             Y             Z
Electronic contribution:     -0.00000      -0.00000      -0.00000
Nuclear contribution   :      0.00000       0.00000       0.00000
                        -----------------------------------------
Total Dipole Moment    :     -0.00000      -0.00000      -0.00000
                        -----------------------------------------
Magnitude (a.u.)       :      0.00000
Magnitude (Debye)      :      0.00000

Rotational constants in cm-1:     0.000000     0.000000     0.000000
Rotational constants in MHz :     0.000000     0.000000     0.000000

                             ****ORCA TERMINATED NORMALLY****
TOTAL RUN TIME: 0 days 0 hours 0 minutes 28 seconds 999 msec
