                         Program Version 4.2.0 -  RELEASE  -
|  1> # input to generate an atomic fitting density for Zr
|  2> # this file is use internally by ORCA
|  3> #
|  4> # atomic ground state (S=3): 1s2 2s2 2p6 3s2 3p6 4s2 3d10 4p6 4d2 5s2
|  5> #
|  6> ! RHF AllowRHF def2-SVP def2/J  NoMulliken NoLoewdin NoMayer NoPrintMOs
|  7>
|  8> %output print[p_atomdensfit] 2 end
|  9>
| 10> %scf
| 11>   guess hcore
| 12>   maxiter 1000
| 13>   maxdisk 500000
| 14>   SCFMode Conventional
| 15>   lshift 0.300000
| 16>   hftyp rohf
| 17>   rohf_case sahf
| 18>   rohf_numop   3
| 19>   rohf_norb[1] 5,1
| 20>   rohf_nel[1]  2,2
| 21> end
| 22>
| 23> %basis
| 24>   NewECP 40
| 25>     N_core 28
| 26>     lmax f
| 27>     s 4
| 28>       1       8.2000000000    150.2675911000  2
| 29>       2       4.0897278000     18.9762165000  2
| 30>       3       7.5400000000     21.0937760000  2
| 31>       4       3.7700000000      3.0806943000  2
| 32>     p 4
| 33>       1       7.1100000000     99.6221237000  2
| 34>       2       3.5967980000     14.1687333000  2
| 35>       3       7.5400000000     21.0937760000  2
| 36>       4       3.7700000000      3.0806943000  2
| 37>     d 4
| 38>       1       5.3500000000     35.0451235000  2
| 39>       2       2.4918215000      6.1112595000  2
| 40>       3       7.5400000000     21.0937760000  2
| 41>       4       3.7700000000      3.0806943000  2
| 42>     f 2
| 43>       1       7.5400000000    -21.0937760000  2
| 44>       2       3.7700000000     -3.0806943000  2
| 45>   end
| 46>   NewGTO 40
| 47>     s 3
| 48>      1       5.8737890000      0.9717450200
| 49>      2       4.2872700000     -1.7058213661
| 50>      3       1.4641370000     -0.2454443851
| 51>     s 1
| 52>      1       0.8372768234      1.0000000000
| 53>     s 1
| 54>      1       0.3684980651      1.0000000000
| 55>     s 1
| 56>      1       0.0778068591      1.0000000000
| 57>     s 1
| 58>      1       0.0302730883      1.0000000000
| 59>     p 4
| 60>      1       2.8742240000     -0.4817495790
| 61>      2       2.1199010000      0.4740935833
| 62>      3       0.7884582111      0.6081158782
| 63>      4       0.3633257985      0.3701379789
| 64>     p 1
| 65>      1       0.1495176202      1.0000000000
| 66>     p 1
| 67>      1       0.0300000000      1.0000000000
| 68>     d 4
| 69>      1       4.2898623878     -0.0135480233
| 70>      2       1.3615557498      0.2184527100
| 71>      3       0.5693755069      0.4665574703
| 72>      4       0.2267494868      0.4743138206
| 73>     d 1
| 74>      1       0.0830110316      1.0000000000
| 75>   end
| 76>   NewAuxGTO 40
| 77>     S 1
| 78>      1 1310.72 1.0
| 79>     S 1
| 80>      1  655.36 1.0
| 81>     S 1
| 82>      1  327.68 1.0
| 83>     S 1
| 84>      1  163.84 1.0
| 85>     S 1
| 86>      1   81.82 1.0
| 87>     S 1
| 88>      1   40.96 1.0
| 89>     S 1
| 90>      1   20.48 1.0
| 91>     S 1
| 92>      1   10.24 1.0
| 93>     S 1
| 94>      1    5.12 1.0
| 95>     S 1
| 96>      1    2.56 1.0
| 97>     S 1
| 98>      1    1.28 1.0
| 99>     S 1
|100>      1    0.64 1.0
|101>     S 1
|102>      1    0.32 1.0
|103>     S 1
|104>      1    0.16 1.0
|105>     S 1
|106>      1    0.08 1.0
|107>     S 1
|108>      1    0.04 1.0
|109>     S 1
|110>      1    0.02 1.0
|111>     S 1
|112>      1    0.01 1.0
|113>   end
|114> end
|115>
|116> * xyz 0 3
|117> 40  0.0 0.0 0.0
|118> *
|119>
|120>
|121>                          ****END OF INPUT****

CARTESIAN COORDINATES (ANGSTROEM)
---------------------------------
  Zr     0.000000    0.000000    0.000000

 Total Charge           Charge          ....    0
 Multiplicity           Mult            ....    3
 Number of Electrons    NEL             ....   12
 Basis Dimension        Dim             ....   24

ORBITAL ENERGIES
----------------

  NO   OCC          E(Eh)            E(eV)
   0   2.0000      -2.459143       -66.9167
   1   2.0000      -1.456266       -39.6270
   2   2.0000      -1.451544       -39.4985
   3   2.0000      -1.430514       -38.9263
   4   0.4000      -0.244553        -6.6546
   5   0.4000      -0.220165        -5.9910
   6   0.4000      -0.184420        -5.0183
   7   0.4000      -0.175885        -4.7861
   8   0.4000      -0.121004        -3.2927
   9   2.0000      -0.178562        -4.8589
  10   0.0000       0.035201         0.9579
  11   0.0000       0.037815         1.0290
  12   0.0000       0.096246         2.6190
  13   0.0000       0.149915         4.0794
  14   0.0000       0.334917         9.1136

CleanUpVectors: The p-vectors have cracked symmetry
CleanUpVectors: The p-vectors have cracked symmetry
CleanUpVectors: The p-vectors have cracked symmetry
CleanUpVectors: The p-vectors have cracked symmetry
CleanUpVectors: The d-vectors have cracked symmetry at i=6
CleanUpVectors: The d-vectors have cracked symmetry at i=7
CleanUpVectors: The d-vectors have cracked symmetry at i=8
CleanUpVectors: The d-vectors have cracked symmetry at i=9
CleanUpVectors: The p-vectors have cracked symmetry
CleanUpVectors: The p-vectors have cracked symmetry
CleanUpVectors: The d-vectors have cracked symmetry at i=12
CleanUpVectors: The d-vectors have cracked symmetry at i=14
CleanUpVectors: The d-vectors have cracked symmetry at i=15
CleanUpVectors: The d-vectors have cracked symmetry at i=16
CleanUpVectors: The d-vectors have cracked symmetry at i=17
CleanUpVectors: The d-vectors have cracked symmetry at i=18
CleanUpVectors: The p-vectors have cracked symmetry
CleanUpVectors: The p-vectors have cracked symmetry
CleanUpVectors: The p-vectors have cracked symmetry
--------------------------
ATOM BASIS FOR ELEMENT Zr
--------------------------
 NewGTO Zr
 S 7
    1          5.873789000000        -0.535926920520
    2          4.287270000000         0.940777233611
    3          1.464137000000         0.135364988509
    4          0.837276823400        -0.862976529675
    5          0.368498065100        -0.484022281723
    6          0.077806859100        -0.020252173354
    7          0.030273088300         0.003086298189
 P 18
    1          2.874224000000        -0.001238338498
    2          2.119901000000         0.001218658742
    3          0.788458211100         0.001563163386
    4          0.363325798500         0.000951440601
    5          2.874224000000         0.463916267059
    6          2.119901000000        -0.456543679515
    7          0.788458211100        -0.585604763246
    8          0.363325798500        -0.356436283400
    9          2.874224000000         0.014020682909
   10          2.119901000000        -0.013797865302
   11          0.788458211100        -0.017698406541
   12          0.363325798500        -0.010772375236
   13          0.149517620200         0.000160884949
   14          0.149517620200        -0.060272005834
   15          0.149517620200        -0.001821567257
   16          0.030000000000        -0.000006213905
   17          0.030000000000         0.002327902920
   18          0.030000000000         0.000070354913
 S 7
    1          5.873789000000        -0.197347541128
    2          4.287270000000         0.346427967496
    3          1.464137000000         0.049846250700
    4          0.837276823400        -0.393429053583
    5          0.368498065100        -0.366476248404
    6          0.077806859100         0.826091720169
    7          0.030273088300         0.368287697309
 S 7
    1          5.873789000000        -0.117438594667
    2          4.287270000000         0.206154145238
    3          1.464137000000         0.029662764472
    4          0.837276823400        -0.105735982664
    5          0.368498065100        -0.705066874435
    6          0.077806859100         2.428332195619
    7          0.030273088300        -2.093011092510
 S 7
    1          5.873789000000        -0.933011917716
    2          4.287270000000         1.637828474867
    3          1.464137000000         0.235661137152
    4          0.837276823400        -3.876745394637
    5          0.368498065100         3.891872993376
    6          0.077806859100        -1.778364233144
    7          0.030273088300         0.755004328910
 S 7
    1          5.873789000000        -1.743132619903
    2          4.287270000000         3.059931160725
    3          1.464137000000         0.440282281086
    4          0.837276823400        -1.813824399731
    5          0.368498065100         1.029367491437
    6          0.077806859100        -0.323522389630
    7          0.030273088300         0.137903862928
 P 18
    1          2.874224000000         0.114391234059
    2          2.119901000000        -0.112573321114
    3          0.788458211100        -0.144396858431
    4          0.363325798500        -0.087889106756
    5          2.874224000000         0.000448596528
    6          2.119901000000        -0.000441467403
    7          0.788458211100        -0.000566266549
    8          0.363325798500        -0.000344665817
    9          2.874224000000        -0.004739865938
   10          2.119901000000         0.004664539680
   11          0.788458211100         0.005983166075
   12          0.363325798500         0.003641735198
   13          0.149517620200         0.126340557198
   14          0.149517620200         0.000495456979
   15          0.149517620200        -0.005234992948
   16          0.030000000000         0.951689462371
   17          0.030000000000         0.003732144267
   18          0.030000000000        -0.039433794936
 D 18
    1          4.289862387800        -0.000776335925
    2          1.361555749800         0.012517891574
    3          0.569375506900         0.026734920461
    4          0.226749486800         0.027179378908
    5          4.289862387800         0.000323039677
    6          1.361555749800        -0.005208796237
    7          0.569375506900        -0.011124617294
    8          0.226749486800        -0.011309560059
    9          4.289862387800        -0.010767909948
   10          1.361555749800         0.173625263051
   11          0.569375506900         0.370817846613
   12          0.226749486800         0.376982560071
   13          4.289862387800        -0.000445670305
   14          1.361555749800         0.007186132152
   15          0.569375506900         0.015347686180
   16          0.226749486800         0.015602835948
   17          4.289862387800        -0.000055758421
   18          1.361555749800         0.000899066815
 D 18
    1          4.289862387800         0.000001934547
    2          1.361555749800        -0.000031193267
    3          0.569375506900        -0.000066620606
    4          0.226749486800        -0.000067728149
    5          4.289862387800        -0.000419235298
    6          1.361555749800         0.006759885554
    7          0.569375506900         0.014437335675
    8          0.226749486800         0.014677351193
    9          4.289862387800         0.000014232900
   10          1.361555749800        -0.000229495884
   11          0.569375506900        -0.000490142781
   12          0.226749486800        -0.000498291229
   13          4.289862387800         0.000607534930
   14          1.361555749800        -0.009796089727
   15          0.569375506900        -0.020921868363
   16          0.226749486800        -0.021269686906
   17          4.289862387800        -0.010060370205
   18          1.361555749800         0.162216663369
 P 18
    1          2.874224000000        -0.001046229662
    2          2.119901000000         0.001029602912
    3          0.788458211100         0.001320663053
    4          0.363325798500         0.000803839483
    5          2.874224000000         0.391946919102
    6          2.119901000000        -0.385718073124
    7          0.788458211100        -0.494757349684
    8          0.363325798500        -0.301140772709
    9          2.874224000000         0.011845593382
   10          2.119901000000        -0.011657342441
   11          0.788458211100        -0.014952775750
   12          0.363325798500        -0.009101209808
   13          0.149517620200        -0.003833248620
   14          0.149517620200         1.436042239563
   15          0.149517620200         0.043400704588
   16          0.030000000000         0.001604615902
   17          0.030000000000        -0.601134035983
   18          0.030000000000        -0.018167739078
 end
  // -----------------------------------------------
  // The basis set
  // -----------------------------------------------
  BAS[ATNO] = new BFNGauss[NSH];
  // Basis function   1 L = s
  InitBFNGauss(BAS[ATNO][  0]);
  BAS[ATNO][  0].l  = 0;
  BAS[ATNO][  0].ng = 7;
  BAS[ATNO][  0].a[  0] =         5.873789000000;     BAS[ATNO][  0].d[  0] =        -0.535926920520;
  BAS[ATNO][  0].a[  1] =         4.287270000000;     BAS[ATNO][  0].d[  1] =         0.940777233611;
  BAS[ATNO][  0].a[  2] =         1.464137000000;     BAS[ATNO][  0].d[  2] =         0.135364988509;
  BAS[ATNO][  0].a[  3] =         0.837276823400;     BAS[ATNO][  0].d[  3] =        -0.862976529675;
  BAS[ATNO][  0].a[  4] =         0.368498065100;     BAS[ATNO][  0].d[  4] =        -0.484022281723;
  BAS[ATNO][  0].a[  5] =         0.077806859100;     BAS[ATNO][  0].d[  5] =        -0.020252173354;
  BAS[ATNO][  0].a[  6] =         0.030273088300;     BAS[ATNO][  0].d[  6] =         0.003086298189;

FINAL SINGLE POINT ENERGY       -46.266064571354

DIPOLE MOMENT
-------------
                                X             Y             Z
Electronic contribution:     -0.00000       0.00000       0.00000
Nuclear contribution   :      0.00000       0.00000       0.00000
                        -----------------------------------------
Total Dipole Moment    :     -0.00000       0.00000       0.00000
                        -----------------------------------------
Magnitude (a.u.)       :      0.00000
Magnitude (Debye)      :      0.00000

Rotational constants in cm-1:     0.000000     0.000000     0.000000
Rotational constants in MHz :     0.000000     0.000000     0.000000

                             ****ORCA TERMINATED NORMALLY****
TOTAL RUN TIME: 0 days 0 hours 0 minutes 1 seconds 256 msec
