                         Program Version 4.2.0 -  RELEASE  -
|  1> # input to generate an atomic fitting density for Nb
|  2> # this file is use internally by ORCA
|  3> #
|  4> # atomic ground state (S=4): 1s2 2s2 2p6 3s2 3p6 4s2 3d10 4p6 5s2 4d3
|  5> #
|  6> ! RHF AllowRHF def2-SVP def2/J  NoMulliken NoLoewdin NoMayer NoPrintMOs
|  7>
|  8> %output print[p_atomdensfit] 2 end
|  9>
| 10> %scf
| 11>   guess hcore
| 12>   maxiter 1000
| 13>   maxdisk 500000
| 14>   SCFMode Conventional
| 15>   lshift 0.500000
| 16>   hftyp rohf
| 17>   rohf_case sahf
| 18>   rohf_numop   2
| 19>   rohf_norb[1] 5
| 20>   rohf_nel[1]  3
| 21> end
| 22>
| 23> %basis
| 24>   NewECP 41
| 25>     N_core 28
| 26>     lmax f
| 27>     s 4
| 28>       1       8.9000000000    165.1791435000  2
| 29>       2       4.4300000000     21.9929744000  2
| 30>       3       8.4900000000     22.9295500000  2
| 31>       4       4.2500000000      3.6663099000  2
| 32>     p 4
| 33>       1       7.7700000000    111.7944145000  2
| 34>       2       3.9600000000     16.6334833000  2
| 35>       3       8.4900000000     22.9295500000  2
| 36>       4       4.2500000000      3.6663099000  2
| 37>     d 4
| 38>       1       6.0500000000     38.1122488000  2
| 39>       2       2.8400000000      8.0391673000  2
| 40>       3       8.4900000000     22.9295500000  2
| 41>       4       4.2500000000      3.6663099000  2
| 42>     f 2
| 43>       1       8.4900000000    -22.9295500000  2
| 44>       2       4.2500000000     -3.6663099000  2
| 45>   end
| 46>   NewGTO 41
| 47>     s 3
| 48>      1       6.5663010000     -0.9142704602
| 49>      2       4.5864380000      1.5157625364
| 50>      3       3.7537700000      0.3504243489
| 51>     s 1
| 52>      1       0.8418771744      1.0000000000
| 53>     s 1
| 54>      1       0.3816066618      1.0000000000
| 55>     s 1
| 56>      1       0.0858199114      1.0000000000
| 57>     s 1
| 58>      1       0.0327023304      1.0000000000
| 59>     p 4
| 60>      1       3.0700630000     -0.5185293329
| 61>      2       2.2379640000      0.5443971263
| 62>      3       0.8080196967      0.6412596931
| 63>      4       0.3578334343      0.3069596128
| 64>     p 1
| 65>      1       0.1382008528      1.0000000000
| 66>     p 1
| 67>      1       0.0360000000      1.0000000000
| 68>     d 4
| 69>      1       4.6170975867     -0.0149085206
| 70>      2       1.5663438480      0.2237661362
| 71>      3       0.6695242583      0.4722306528
| 72>      4       0.2714094687      0.4590766219
| 73>     d 1
| 74>      1       0.1005442659      1.0000000000
| 75>   end
| 76>   NewAuxGTO 41
| 77>     S 1
| 78>      1 1310.72 1.0
| 79>     S 1
| 80>      1  655.36 1.0
| 81>     S 1
| 82>      1  327.68 1.0
| 83>     S 1
| 84>      1  163.84 1.0
| 85>     S 1
| 86>      1   81.82 1.0
| 87>     S 1
| 88>      1   40.96 1.0
| 89>     S 1
| 90>      1   20.48 1.0
| 91>     S 1
| 92>      1   10.24 1.0
| 93>     S 1
| 94>      1    5.12 1.0
| 95>     S 1
| 96>      1    2.56 1.0
| 97>     S 1
| 98>      1    1.28 1.0
| 99>     S 1
|100>      1    0.64 1.0
|101>     S 1
|102>      1    0.32 1.0
|103>     S 1
|104>      1    0.16 1.0
|105>     S 1
|106>      1    0.08 1.0
|107>     S 1
|108>      1    0.04 1.0
|109>     S 1
|110>      1    0.02 1.0
|111>     S 1
|112>      1    0.01 1.0
|113>   end
|114> end
|115>
|116> * xyz 0 4
|117> 41  0.0 0.0 0.0
|118> *
|119>
|120>
|121>                          ****END OF INPUT****

CARTESIAN COORDINATES (ANGSTROEM)
---------------------------------
  Nb     0.000000    0.000000    0.000000

 Total Charge           Charge          ....    0
 Multiplicity           Mult            ....    4
 Number of Electrons    NEL             ....   13
 Basis Dimension        Dim             ....   24

ORBITAL ENERGIES
----------------

  NO   OCC          E(Eh)            E(eV)
   0   2.0000      -2.950656       -80.2914
   1   2.0000      -1.851848       -50.3913
   2   2.0000      -1.839963       -50.0679
   3   2.0000      -1.836452       -49.9724
   4   2.0000      -0.432198       -11.7607
   5   0.6000      -0.425251       -11.5717
   6   0.6000      -0.356812        -9.7094
   7   0.6000      -0.196124        -5.3368
   8   0.6000      -0.182232        -4.9588
   9   0.6000      -0.177876        -4.8403
  10   0.0000      -0.193381        -5.2622
  11   0.0000      -0.184690        -5.0257
  12   0.0000      -0.160443        -4.3659
  13   0.0000       0.022624         0.6156
  14   0.0000       0.146474         3.9858

CleanUpVectors: The p-vectors have cracked symmetry
CleanUpVectors: The p-vectors have cracked symmetry
CleanUpVectors: The p-vectors have cracked symmetry
CleanUpVectors: The d-vectors have cracked symmetry at i=4
CleanUpVectors: The d-vectors have cracked symmetry at i=5
CleanUpVectors: The p-vectors have cracked symmetry
CleanUpVectors: The p-vectors have cracked symmetry
CleanUpVectors: The p-vectors have cracked symmetry
CleanUpVectors: The d-vectors have cracked symmetry at i=10
CleanUpVectors: The d-vectors have cracked symmetry at i=11
CleanUpVectors: The d-vectors have cracked symmetry at i=12
CleanUpVectors: The p-vectors have cracked symmetry
CleanUpVectors: The p-vectors have cracked symmetry
CleanUpVectors: The p-vectors have cracked symmetry
CleanUpVectors: The d-vectors have cracked symmetry at i=17
CleanUpVectors: The d-vectors have cracked symmetry at i=18
CleanUpVectors: The d-vectors have cracked symmetry at i=19
--------------------------
ATOM BASIS FOR ELEMENT Nb
--------------------------
 NewGTO Nb
 S 7
    1          6.566301000000        -0.441108258502
    2          4.586438000000         0.731310265222
    3          3.753770000000         0.169069308272
    4          0.841877174400        -0.885529511381
    5          0.381606661800        -0.384173008838
    6          0.085819911400        -0.005893959241
    7          0.032702330400         0.000421038135
 P 18
    1          3.070063000000         0.488518651868
    2          2.237964000000        -0.512889307021
    3          0.808019696700        -0.604145804093
    4          0.357833434300        -0.289193854057
    5          3.070063000000        -0.072271707289
    6          2.237964000000         0.075877114880
    7          0.808019696700         0.089377649239
    8          0.357833434300         0.042783491460
    9          3.070063000000         0.150740287011
   10          2.237964000000        -0.158260244618
   11          0.808019696700        -0.186418904493
   12          0.357833434300        -0.089235414852
   13          0.138200852800        -0.006716276892
   14          0.138200852800         0.000993609549
   15          0.138200852800        -0.002072415255
   16          0.036000000000        -0.002831549516
   17          0.036000000000         0.000418900930
   18          0.036000000000        -0.000873720144
 D 18
    1          6.566301000000         0.000299171948
    2          4.586438000000        -0.000710105065
    3          3.753770000000        -0.000200582752
    4          0.841877174400         0.007399134439
    5          0.381606661800         0.000645165483
    6          0.085819911400        -0.088425871447
    7          0.032702330400        -0.001317538084
    8          4.617097586700         0.001239243487
    9          1.566343848000        -0.018600150499
   10          0.669524258300        -0.039253308661
   11          0.271409468700        -0.038159903919
   12          4.617097586700        -0.004769384820
   13          1.566343848000         0.071585024555
   14          0.669524258300         0.151071307974
   15          0.271409468700         0.146863201954
   16          4.617097586700         0.000179691179
   17          1.566343848000        -0.002697034924
   18          0.669524258300        -0.005691757406
 P 18
    1          3.070063000000        -0.035133303086
    2          2.237964000000         0.036885992795
    3          0.808019696700         0.043448981041
    4          0.357833434300         0.020798254655
    5          3.070063000000         0.087697796312
    6          2.237964000000        -0.092072762842
    7          0.808019696700        -0.108454928931
    8          0.357833434300        -0.051915446034
    9          3.070063000000         0.155906186661
   10          2.237964000000        -0.163683854713
   11          0.808019696700        -0.192807517468
   12          0.357833434300        -0.092293530287
   13          0.138200852800        -0.083117385501
   14          0.138200852800         0.207472992953
   15          0.138200852800         0.368838494546
   16          0.036000000000        -0.143104867807
   17          0.036000000000         0.357210408522
   18          0.036000000000         0.635036625441
 D 18
    1          4.617097586700        -0.004977026405
    2          1.566343848000         0.074701574915
    3          0.669524258300         0.157648400631
    4          0.271409468700         0.153257089053
    5          4.617097586700        -0.009133835304
    6          1.566343848000         0.137092276923
    7          0.669524258300         0.289316232227
    8          0.271409468700         0.281257300355
    9          4.617097586700         0.003842740458
   10          1.566343848000        -0.057676761342
   11          0.669524258300        -0.121719644993
   12          0.271409468700        -0.118329132408
   13          4.617097586700        -0.000045178106
   14          1.566343848000         0.000678090769
   15          0.669524258300         0.001431026393
   16          0.271409468700         0.001391165013
   17          4.617097586700        -0.003649234969
   18          1.566343848000         0.054772383594
 D 18
    1          6.566301000000         0.000171913832
    2          4.586438000000        -0.000408049229
    3          3.753770000000        -0.000115261306
    4          0.841877174400         0.004945105793
    5          0.381606661800        -0.003951058743
    6          0.085819911400        -0.030420958982
    7          0.032702330400         0.006722253908
    8          4.617097586700         0.001681501280
    9          1.566343848000        -0.025238120834
   10          0.669524258300        -0.053261921037
   11          0.271409468700        -0.051778305031
   12          4.617097586700        -0.003371053369
   13          1.566343848000         0.050597078507
   14          0.669524258300         0.106778853222
   15          0.271409468700         0.103804517849
   16          4.617097586700         0.000610247485
   17          1.566343848000        -0.009159374393
   18          0.669524258300        -0.019329722640
 S 18
    1          6.566301000000        -0.664612723356
    2          4.586438000000         1.101856738385
    3          3.753770000000         0.254734775967
    4          0.841877174400        -3.675072398073
    5          0.381606661800         4.092948611888
    6          0.085819911400        -1.995894492917
    7          0.032702330400         0.837148988208
    8          4.617097586700         0.002286669879
    9          1.566343848000        -0.011643440711
   10          0.669524258300        -0.010503169122
   11          0.271409468700        -0.004139139272
   12          4.617097586700        -0.000835128729
   13          1.566343848000         0.004252372383
   14          0.669524258300         0.003835926803
   15          0.271409468700         0.001511680436
   16          4.617097586700         0.001272975748
   17          1.566343848000        -0.006481835347
   18          0.669524258300        -0.005847052822
 S 18
    1          6.566301000000        -1.385779756868
    2          4.586438000000         2.297474468006
    3          3.753770000000         0.531145859085
    4          0.841877174400        -1.428420757230
    5          0.381606661800         0.959470819714
    6          0.085819911400        -0.314148682753
    7          0.032702330400         0.128688899615
    8          4.617097586700        -0.000013969983
    9          1.566343848000         0.000071133427
   10          0.669524258300         0.000064167151
   11          0.271409468700         0.000025287299
   12          4.617097586700         0.000005356740
   13          1.566343848000        -0.000027275860
   14          0.669524258300        -0.000024604666
   15          0.271409468700        -0.000009696325
   16          4.617097586700        -0.000007746908
   17          1.566343848000         0.000039446300
   18          0.669524258300         0.000035583224
 end
  // -----------------------------------------------
  // The basis set
  // -----------------------------------------------
  BAS[ATNO] = new BFNGauss[NSH];
  // Basis function   1 L = s
  InitBFNGauss(BAS[ATNO][  0]);
  BAS[ATNO][  0].l  = 0;
  BAS[ATNO][  0].ng = 7;
  BAS[ATNO][  0].a[  0] =         6.566301000000;     BAS[ATNO][  0].d[  0] =         0.441108258502;
  BAS[ATNO][  0].a[  1] =         4.586438000000;     BAS[ATNO][  0].d[  1] =        -0.731310265222;
  BAS[ATNO][  0].a[  2] =         3.753770000000;     BAS[ATNO][  0].d[  2] =        -0.169069308272;
  BAS[ATNO][  0].a[  3] =         0.841877174400;     BAS[ATNO][  0].d[  3] =         0.885529511381;
  BAS[ATNO][  0].a[  4] =         0.381606661800;     BAS[ATNO][  0].d[  4] =         0.384173008838;
  BAS[ATNO][  0].a[  5] =         0.085819911400;     BAS[ATNO][  0].d[  5] =         0.005893959241;
  BAS[ATNO][  0].a[  6] =         0.032702330400;     BAS[ATNO][  0].d[  6] =        -0.000421038135;

FINAL SINGLE POINT ENERGY       -56.015328303820

DIPOLE MOMENT
-------------
                                X             Y             Z
Electronic contribution:      0.00000      -0.00000      -0.00000
Nuclear contribution   :      0.00000       0.00000       0.00000
                        -----------------------------------------
Total Dipole Moment    :      0.00000      -0.00000      -0.00000
                        -----------------------------------------
Magnitude (a.u.)       :      0.00000
Magnitude (Debye)      :      0.00000

Rotational constants in cm-1:     0.000000     0.000000     0.000000
Rotational constants in MHz :     0.000000     0.000000     0.000000

                             ****ORCA TERMINATED NORMALLY****
TOTAL RUN TIME: 0 days 0 hours 0 minutes 1 seconds 478 msec
