                         Program Version 4.2.0 -  RELEASE  -
|  1> #
|  2> # 41_Nb CCSD(T)/Def2-SVP
|  3> #
|  4> ! CCSD(T) Def2-SVP tightscf
|  5>
|  6> *xyz 0 6
|  7>  Nb 0.0 0.0 0.0
|  8> *
|  9>
| 10> %maxcore 5000
| 11>
| 12> %pal
| 13> nprocs 24
| 14> end
| 15>
| 16>
| 17>                          ****END OF INPUT****

CARTESIAN COORDINATES (ANGSTROEM)
---------------------------------
  Nb     0.000000    0.000000    0.000000

 Total Charge           Charge          ....    0
 Multiplicity           Mult            ....    6
 Number of Electrons    NEL             ....   13
 Basis Dimension        Dim             ....   31

ORBITAL ENERGIES
----------------
                 SPIN UP ORBITALS
  NO   OCC          E(Eh)            E(eV)
   0   1.0000      -2.663923       -72.4890
   1   1.0000      -1.622759       -44.1575
   2   1.0000      -1.622759       -44.1575
   3   1.0000      -1.622759       -44.1575
   4   1.0000      -0.206168        -5.6101
   5   1.0000      -0.206168        -5.6101
   6   1.0000      -0.206168        -5.6101
   7   1.0000      -0.206168        -5.6101
   8   1.0000      -0.206168        -5.6101
   9   0.0000      -0.001575        -0.0428
  10   0.0000       0.060835         1.6554
  11   0.0000       0.060835         1.6554
  12   0.0000       0.060835         1.6554
  13   0.0000       0.201416         5.4808

                 SPIN DOWN ORBITALS
  NO   OCC          E(Eh)            E(eV)
   0   1.0000      -2.484386       -67.6036
   1   1.0000      -1.372628       -37.3511
   2   1.0000      -1.372628       -37.3511
   3   1.0000      -1.372628       -37.3511
   4   0.0000       0.039650         1.0789
   5   0.0000       0.083930         2.2839
   6   0.0000       0.083930         2.2839
   7   0.0000       0.083930         2.2839
   8   0.0000       0.239553         6.5186

E(0)                                       ...    -56.248623529
E(0)                                       ...    -56.248623529
E(CORR)                                    ...     -0.187620076
E(TOT)                                     ...    -56.436243604
E(CCSD(T))                                 ...    -56.440647191

MULLIKEN ATOMIC CHARGES AND SPIN DENSITIES
------------------------------------------
   0 Nb:   -0.000000    5.000000
Sum of atomic charges       :   -0.0000000

LOEWDIN ATOMIC CHARGES AND SPIN DENSITIES
-----------------------------------------
   0 Nb:   -0.000000    5.000000

FINAL SINGLE POINT ENERGY       -56.440647190603

DIPOLE MOMENT
-------------
                                X             Y             Z
Electronic contribution:     -0.00000      -0.00000      -0.00000
Nuclear contribution   :      0.00000       0.00000       0.00000
                        -----------------------------------------
Total Dipole Moment    :     -0.00000      -0.00000      -0.00000
                        -----------------------------------------
Magnitude (a.u.)       :      0.00000
Magnitude (Debye)      :      0.00000

Rotational constants in cm-1:     0.000000     0.000000     0.000000
Rotational constants in MHz :     0.000000     0.000000     0.000000

                             ****ORCA TERMINATED NORMALLY****
TOTAL RUN TIME: 0 days 0 hours 0 minutes 9 seconds 923 msec
