                         Program Version 4.2.0 -  RELEASE  -
|  1> #
|  2> # 42_Mo CCSD(T)/Def2-SVP
|  3> #
|  4> ! CCSD(T) Def2-SVP tightscf
|  5>
|  6> *xyz 0 7
|  7>  Mo 0.0 0.0 0.0
|  8> *
|  9>
| 10> %maxcore 5000
| 11>
| 12> %pal
| 13> nprocs 24
| 14> end
| 15>
| 16>
| 17>                          ****END OF INPUT****

CARTESIAN COORDINATES (ANGSTROEM)
---------------------------------
  Mo     0.000000    0.000000    0.000000

 Total Charge           Charge          ....    0
 Multiplicity           Mult            ....    7
 Number of Electrons    NEL             ....   14
 Basis Dimension        Dim             ....   31

ORBITAL ENERGIES
----------------
                 SPIN UP ORBITALS
  NO   OCC          E(Eh)            E(eV)
   0   1.0000      -3.046942       -82.9115
   1   1.0000      -1.932652       -52.5901
   2   1.0000      -1.932652       -52.5901
   3   1.0000      -1.932652       -52.5901
   4   1.0000      -0.340954        -9.2778
   5   1.0000      -0.340954        -9.2778
   6   1.0000      -0.340954        -9.2778
   7   1.0000      -0.340954        -9.2778
   8   1.0000      -0.340954        -9.2778
   9   1.0000      -0.239414        -6.5148
  10   0.0000       0.033534         0.9125
  11   0.0000       0.033534         0.9125
  12   0.0000       0.033534         0.9125
  13   0.0000       0.164900         4.4871
  14   0.0000       0.342095         9.3089

                 SPIN DOWN ORBITALS
  NO   OCC          E(Eh)            E(eV)
   0   1.0000      -2.805519       -76.3420
   1   1.0000      -1.617242       -44.0074
   2   1.0000      -1.617242       -44.0074
   3   1.0000      -1.617242       -44.0074
   4   0.0000       0.032445         0.8829
   5   0.0000       0.083019         2.2591
   6   0.0000       0.083019         2.2591
   7   0.0000       0.083019         2.2591
   8   0.0000       0.216345         5.8870

E(0)                                       ...    -67.545367772
E(0)                                       ...    -67.545367772
E(CORR)                                    ...     -0.202459695
E(TOT)                                     ...    -67.747827467
E(CCSD(T))                                 ...    -67.751912289

MULLIKEN ATOMIC CHARGES AND SPIN DENSITIES
------------------------------------------
   0 Mo:   -0.000000    6.000000
Sum of atomic charges       :   -0.0000000

LOEWDIN ATOMIC CHARGES AND SPIN DENSITIES
-----------------------------------------
   0 Mo:   -0.000000    6.000000

FINAL SINGLE POINT ENERGY       -67.751912289443

DIPOLE MOMENT
-------------
                                X             Y             Z
Electronic contribution:      0.00000       0.00000      -0.00000
Nuclear contribution   :      0.00000       0.00000       0.00000
                        -----------------------------------------
Total Dipole Moment    :      0.00000       0.00000      -0.00000
                        -----------------------------------------
Magnitude (a.u.)       :      0.00000
Magnitude (Debye)      :      0.00000

Rotational constants in cm-1:     0.000000     0.000000     0.000000
Rotational constants in MHz :     0.000000     0.000000     0.000000

                             ****ORCA TERMINATED NORMALLY****
TOTAL RUN TIME: 0 days 0 hours 0 minutes 10 seconds 69 msec
