                         Program Version 4.2.0 -  RELEASE  -
|  1> # input to generate an atomic fitting density for Mo
|  2> # this file is use internally by ORCA
|  3> #
|  4> # atomic ground state (S=5): 1s2 2s2 2p6 3s2 3p6 4s2 3d10 4p6 5s2 4d4
|  5> #
|  6> ! RHF AllowRHF def2-SVP def2/J  NoMulliken NoLoewdin NoMayer NoPrintMOs
|  7>
|  8> %output print[p_atomdensfit] 2 end
|  9>
| 10> %scf
| 11>   guess hcore
| 12>   maxiter 1000
| 13>   maxdisk 500000
| 14>   SCFMode Conventional
| 15>   lshift 0.600000
| 16>   hftyp rohf
| 17>   rohf_case sahf
| 18>   rohf_numop   2
| 19>   rohf_norb[1] 5
| 20>   rohf_nel[1]  4
| 21> end
| 22>
| 23> %basis
| 24>   NewECP 42
| 25>     N_core 28
| 26>     lmax f
| 27>     s 4
| 28>       1       9.7145938000    180.1031085000  2
| 29>       2       4.6805004000     24.9972279000  2
| 30>       3       9.4500000000     24.8051771000  2
| 31>       4       4.7200000000      4.1537815000  2
| 32>     p 4
| 33>       1       8.1421366000    123.7727523000  2
| 34>       2       4.6259863000     19.5302280000  2
| 35>       3       9.4500000000     24.8051771000  2
| 36>       4       4.7200000000      4.1537815000  2
| 37>     d 4
| 38>       1       6.6184148000     48.3750223000  2
| 39>       2       3.2487516000      8.8920527000  2
| 40>       3       9.4500000000     24.8051771000  2
| 41>       4       4.7200000000      4.1537815000  2
| 42>     f 2
| 43>       1       9.4500000000    -24.8051771000  2
| 44>       2       4.7200000000     -4.1537815000  2
| 45>   end
| 46>   NewGTO 42
| 47>     s 3
| 48>      1       7.2033800000     -0.8629257632
| 49>      2       5.0522950000      1.5530909736
| 50>      3       2.9135330000      0.2686460943
| 51>     s 1
| 52>      1       0.9785821868      1.0000000000
| 53>     s 1
| 54>      1       0.4436915375      1.0000000000
| 55>     s 1
| 56>      1       0.0921500907      1.0000000000
| 57>     s 1
| 58>      1       0.0348022469      1.0000000000
| 59>     p 4
| 60>      1       3.1518660000     -0.7258750751
| 61>      2       2.4534820000      0.7720278188
| 62>      3       0.8503019218      0.6545282682
| 63>      4       0.3691823718      0.2705844698
| 64>     p 1
| 65>      1       0.1349062746      1.0000000000
| 66>     p 1
| 67>      1       0.0382000000      1.0000000000
| 68>     d 4
| 69>      1       5.0044445497     -0.0235634366
| 70>      2       1.7736823324      0.2287720303
| 71>      3       0.7695059170      0.4773393314
| 72>      4       0.3153087894      0.4488834333
| 73>     d 1
| 74>      1       0.1175437439      1.0000000000
| 75>   end
| 76>   NewAuxGTO 42
| 77>     S 1
| 78>      1 1310.72 1.0
| 79>     S 1
| 80>      1  655.36 1.0
| 81>     S 1
| 82>      1  327.68 1.0
| 83>     S 1
| 84>      1  163.84 1.0
| 85>     S 1
| 86>      1   81.82 1.0
| 87>     S 1
| 88>      1   40.96 1.0
| 89>     S 1
| 90>      1   20.48 1.0
| 91>     S 1
| 92>      1   10.24 1.0
| 93>     S 1
| 94>      1    5.12 1.0
| 95>     S 1
| 96>      1    2.56 1.0
| 97>     S 1
| 98>      1    1.28 1.0
| 99>     S 1
|100>      1    0.64 1.0
|101>     S 1
|102>      1    0.32 1.0
|103>     S 1
|104>      1    0.16 1.0
|105>     S 1
|106>      1    0.08 1.0
|107>     S 1
|108>      1    0.04 1.0
|109>     S 1
|110>      1    0.02 1.0
|111>     S 1
|112>      1    0.01 1.0
|113>   end
|114> end
|115>
|116> * xyz 0 5
|117> 42  0.0 0.0 0.0
|118> *
|119>
|120>
|121>                          ****END OF INPUT****

CARTESIAN COORDINATES (ANGSTROEM)
---------------------------------
  Mo     0.000000    0.000000    0.000000

 Total Charge           Charge          ....    0
 Multiplicity           Mult            ....    5
 Number of Electrons    NEL             ....   14
 Basis Dimension        Dim             ....   24

ORBITAL ENERGIES
----------------

  NO   OCC          E(Eh)            E(eV)
   0   2.0000      -3.360138       -91.4340
   1   2.0000      -2.180531       -59.3353
   2   2.0000      -2.169832       -59.0441
   3   2.0000      -2.166441       -58.9518
   4   2.0000      -0.595477       -16.2038
   5   0.8000      -0.637056       -17.3352
   6   0.8000      -0.451678       -12.2908
   7   0.8000      -0.241313        -6.5665
   8   0.8000      -0.224900        -6.1199
   9   0.8000      -0.219691        -5.9781
  10   0.0000      -0.247574        -6.7368
  11   0.0000      -0.240022        -6.5313
  12   0.0000      -0.217531        -5.9193
  13   0.0000       0.054132         1.4730
  14   0.0000       0.150928         4.1070

CleanUpVectors: The p-vectors have cracked symmetry
CleanUpVectors: The p-vectors have cracked symmetry
CleanUpVectors: The p-vectors have cracked symmetry
CleanUpVectors: The d-vectors have cracked symmetry at i=4
CleanUpVectors: The d-vectors have cracked symmetry at i=5
CleanUpVectors: The p-vectors have cracked symmetry
CleanUpVectors: The p-vectors have cracked symmetry
CleanUpVectors: The p-vectors have cracked symmetry
CleanUpVectors: The d-vectors have cracked symmetry at i=10
CleanUpVectors: The d-vectors have cracked symmetry at i=11
CleanUpVectors: The d-vectors have cracked symmetry at i=12
CleanUpVectors: The p-vectors have cracked symmetry
CleanUpVectors: The p-vectors have cracked symmetry
CleanUpVectors: The p-vectors have cracked symmetry
CleanUpVectors: The d-vectors have cracked symmetry at i=17
CleanUpVectors: The d-vectors have cracked symmetry at i=18
CleanUpVectors: The d-vectors have cracked symmetry at i=19
--------------------------
ATOM BASIS FOR ELEMENT Mo
--------------------------
 NewGTO Mo
 S 7
    1          7.203380000000        -0.453687833457
    2          5.052295000000         0.816545882650
    3          2.913533000000         0.141242120339
    4          0.978582186800        -0.884305591807
    5          0.443691537500        -0.427918872800
    6          0.092150090700        -0.003956337334
    7          0.034802246900        -0.000109596517
 P 18
    1          3.151866000000        -0.413791632461
    2          2.453482000000         0.440101420210
    3          0.850301921800         0.373119741786
    4          0.369182371800         0.154249117125
    5          3.151866000000        -0.316592175990
    6          2.453482000000         0.336721807186
    7          0.850301921800         0.285474092974
    8          0.369182371800         0.118016073319
    9          3.151866000000         0.513051594475
   10          2.453482000000        -0.545672550280
   11          0.850301921800        -0.462623367503
   12          0.369182371800        -0.191250255634
   13          0.134906274600        -0.009900475884
   14          0.134906274600        -0.007574858836
   15          0.134906274600         0.012275393072
   16          0.038200000000         0.004157275966
   17          0.038200000000         0.003180733831
   18          0.038200000000        -0.005154519559
 D 18
    1          7.203380000000         0.000114138161
    2          5.052295000000        -0.000292888256
    3          2.913533000000        -0.000087852546
    4          0.978582186800         0.002741304538
    5          0.443691537500        -0.001566355460
    6          0.092150090700        -0.017244714355
    7          0.034802246900         0.015586064411
    8          5.004444549700        -0.009942731741
    9          1.773682332400         0.096531714188
   10          0.769505917000         0.201416160223
   11          0.315308789400         0.189409025353
   12          5.004444549700        -0.005070310026
   13          1.773682332400         0.049226483327
   14          0.769505917000         0.102712453999
   15          0.315308789400         0.096589398696
   16          5.004444549700        -0.014956364769
   17          1.773682332400         0.145207933470
   18          0.769505917000         0.302980472682
 P 18
    1          3.151866000000        -0.080988843154
    2          2.453482000000         0.086138293037
    3          0.850301921800         0.073028388867
    4          0.369182371800         0.030190213077
    5          3.151866000000         0.250974888628
    6          2.453482000000        -0.266932427476
    7          0.850301921800        -0.226306378123
    8          0.369182371800        -0.093555915476
    9          3.151866000000         0.089550799539
   10          2.453482000000        -0.095244637558
   11          0.850301921800        -0.080748784121
   12          0.369182371800        -0.033381853772
   13          0.134906274600        -0.182986602265
   14          0.134906274600         0.567053934040
   15          0.134906274600         0.202331529870
   16          0.038200000000        -0.162687257887
   17          0.038200000000         0.504148656029
   18          0.038200000000         0.179886184952
 D 18
    1          5.004444549700        -0.015415816025
    2          1.773682332400         0.149668640898
    3          0.769505917000         0.312287865278
    4          0.315308789400         0.293671273081
    5          5.004444549700        -0.007064340992
    6          1.773682332400         0.068586075064
    7          0.769505917000         0.143106791384
    8          0.315308789400         0.134575685721
    9          5.004444549700         0.003699777761
   10          1.773682332400        -0.035920298231
   11          0.769505917000        -0.074948721305
   12          0.315308789400        -0.070480761018
   13          5.004444549700        -0.009290064148
   14          1.773682332400         0.090195113424
   15          0.769505917000         0.188194662962
   16          0.315308789400         0.176975708646
   17          5.004444549700        -0.005296638346
   18          1.773682332400         0.051423853352
 D 18
    1          7.203380000000         0.000284148549
    2          5.052295000000        -0.000729149410
    3          2.913533000000        -0.000218710142
    4          0.978582186800         0.006945182370
    5          0.443691537500        -0.002148070939
    6          0.092150090700        -0.083622957549
    7          0.034802246900         0.075927318406
    8          5.004444549700         0.000512689146
    9          1.773682332400        -0.004977581957
   10          0.769505917000        -0.010385865966
   11          0.315308789400        -0.009766727495
   12          5.004444549700         0.006291937854
   13          1.773682332400        -0.061086989211
   14          0.769505917000        -0.127459736004
   15          0.315308789400        -0.119861407057
   16          5.004444549700        -0.008365901331
   17          1.773682332400         0.081222627466
   18          0.769505917000         0.169473316465
 S 18
    1          7.203380000000        -0.727315617987
    2          5.052295000000         1.309020276629
    3          2.913533000000         0.226427936710
    4          0.978582186800        -3.808200049860
    5          0.443691537500         4.001469829135
    6          0.092150090700        -1.863053140581
    7          0.034802246900         0.804981623915
    8          5.004444549700        -0.000327527992
    9          1.773682332400         0.001127022737
   10          0.769505917000         0.001020218267
   11          0.315308789400         0.000393118576
   12          5.004444549700         0.001486009180
   13          1.773682332400        -0.005113352669
   14          0.769505917000        -0.004628776002
   15          0.315308789400        -0.001783596597
   16          5.004444549700        -0.002997280866
   17          1.773682332400         0.010313633536
   18          0.769505917000         0.009336242285
 S 18
    1          7.203380000000        -1.406658164975
    2          5.052295000000         2.531698776569
    3          2.913533000000         0.437920894417
    4          0.978582186800        -1.600512196806
    5          0.443691537500         0.999515445597
    6          0.092150090700        -0.301471368077
    7          0.034802246900         0.126417356643
    8          5.004444549700         0.000003184270
    9          1.773682332400        -0.000010957062
   10          0.769505917000        -0.000009918695
   11          0.315308789400        -0.000003821950
   12          5.004444549700        -0.000012945480
   13          1.773682332400         0.000044545353
   14          0.769505917000         0.000040323927
   15          0.315308789400         0.000015537935
   16          5.004444549700         0.000026864658
   17          1.773682332400        -0.000092441198
   18          0.769505917000        -0.000083680831
 end
  // -----------------------------------------------
  // The basis set
  // -----------------------------------------------
  BAS[ATNO] = new BFNGauss[NSH];
  // Basis function   1 L = s
  InitBFNGauss(BAS[ATNO][  0]);
  BAS[ATNO][  0].l  = 0;
  BAS[ATNO][  0].ng = 7;
  BAS[ATNO][  0].a[  0] =         7.203380000000;     BAS[ATNO][  0].d[  0] =         0.453687833457;
  BAS[ATNO][  0].a[  1] =         5.052295000000;     BAS[ATNO][  0].d[  1] =        -0.816545882650;
  BAS[ATNO][  0].a[  2] =         2.913533000000;     BAS[ATNO][  0].d[  2] =        -0.141242120339;
  BAS[ATNO][  0].a[  3] =         0.978582186800;     BAS[ATNO][  0].d[  3] =         0.884305591807;
  BAS[ATNO][  0].a[  4] =         0.443691537500;     BAS[ATNO][  0].d[  4] =         0.427918872800;
  BAS[ATNO][  0].a[  5] =         0.092150090700;     BAS[ATNO][  0].d[  5] =         0.003956337334;
  BAS[ATNO][  0].a[  6] =         0.034802246900;     BAS[ATNO][  0].d[  6] =         0.000109596517;

FINAL SINGLE POINT ENERGY       -67.006390314750

DIPOLE MOMENT
-------------
                                X             Y             Z
Electronic contribution:      0.00000       0.00000      -0.00000
Nuclear contribution   :      0.00000       0.00000       0.00000
                        -----------------------------------------
Total Dipole Moment    :      0.00000       0.00000      -0.00000
                        -----------------------------------------
Magnitude (a.u.)       :      0.00000
Magnitude (Debye)      :      0.00000

Rotational constants in cm-1:     0.000000     0.000000     0.000000
Rotational constants in MHz :     0.000000     0.000000     0.000000

                             ****ORCA TERMINATED NORMALLY****
TOTAL RUN TIME: 0 days 0 hours 0 minutes 1 seconds 211 msec
