                         Program Version 4.2.0 -  RELEASE  -
|  1> #
|  2> # 43_Tc CCSD(T)/Def2-SVP
|  3> #
|  4> ! CCSD(T) Def2-SVP tightscf
|  5>
|  6> *xyz 0 6
|  7>  Tc 0.0 0.0 0.0
|  8> *
|  9>
| 10> %maxcore 5000
| 11>
| 12> %pal
| 13> nprocs 24
| 14> end
| 15>
| 16>
| 17>                          ****END OF INPUT****

CARTESIAN COORDINATES (ANGSTROEM)
---------------------------------
  Tc     0.000000    0.000000    0.000000

 Total Charge           Charge          ....    0
 Multiplicity           Mult            ....    6
 Number of Electrons    NEL             ....   15
 Basis Dimension        Dim             ....   31

ORBITAL ENERGIES
----------------
                 SPIN UP ORBITALS
  NO   OCC          E(Eh)            E(eV)
   0   1.0000      -3.483919       -94.8023
   1   1.0000      -2.293276       -62.4032
   2   1.0000      -2.293276       -62.4032
   3   1.0000      -2.293276       -62.4032
   4   1.0000      -0.520837       -14.1727
   5   1.0000      -0.520837       -14.1727
   6   1.0000      -0.520837       -14.1727
   7   1.0000      -0.520837       -14.1727
   8   1.0000      -0.520837       -14.1727
   9   1.0000      -0.280937        -7.6447
  10   0.0000       0.032777         0.8919
  11   0.0000       0.032777         0.8919
  12   0.0000       0.032777         0.8919
  13   0.0000       0.152367         4.1461
  14   0.0000       0.342377         9.3165

                 SPIN DOWN ORBITALS
  NO   OCC          E(Eh)            E(eV)
   0   1.0000      -3.196150       -86.9717
   1   1.0000      -1.922127       -52.3037
   2   1.0000      -1.922127       -52.3037
   3   1.0000      -1.922127       -52.3037
   4   1.0000      -0.208624        -5.6770
   5   0.0000       0.043502         1.1838
   6   0.0000       0.043502         1.1838
   7   0.0000       0.043502         1.1838
   8   0.0000       0.123792         3.3686
   9   0.0000       0.123792         3.3686

E(0)                                       ...    -80.091324770
E(0)                                       ...    -80.091324770
E(CORR)                                    ...     -0.245039874
E(TOT)                                     ...    -80.336364645
E(CCSD(T))                                 ...    -80.342373081

MULLIKEN ATOMIC CHARGES AND SPIN DENSITIES
------------------------------------------
   0 Tc:   -0.000000    5.000000
Sum of atomic charges       :   -0.0000000

LOEWDIN ATOMIC CHARGES AND SPIN DENSITIES
-----------------------------------------
   0 Tc:   -0.000000    5.000000

FINAL SINGLE POINT ENERGY       -80.342373081044

DIPOLE MOMENT
-------------
                                X             Y             Z
Electronic contribution:     -0.00000       0.00000      -0.00000
Nuclear contribution   :      0.00000       0.00000       0.00000
                        -----------------------------------------
Total Dipole Moment    :     -0.00000       0.00000      -0.00000
                        -----------------------------------------
Magnitude (a.u.)       :      0.00000
Magnitude (Debye)      :      0.00000

Rotational constants in cm-1:     0.000000     0.000000     0.000000
Rotational constants in MHz :     0.000000     0.000000     0.000000

                             ****ORCA TERMINATED NORMALLY****
TOTAL RUN TIME: 0 days 0 hours 0 minutes 26 seconds 580 msec
