                         Program Version 4.2.0 -  RELEASE  -
|  1> # input to generate an atomic fitting density for Tc
|  2> # this file is use internally by ORCA
|  3> #
|  4> # atomic ground state (S=6): 1s2 2s2 2p6 3s2 3p6 4s2 3d10 4p6 5s2 4d5
|  5> #
|  6> ! RHF AllowRHF def2-SVP def2/J  NoMulliken NoLoewdin NoMayer NoPrintMOs
|  7>
|  8> %output print[p_atomdensfit] 2 end
|  9>
| 10> %scf
| 11>   guess hcore
| 12>   maxiter 1000
| 13>   maxdisk 500000
| 14>   SCFMode Conventional
| 15>   lshift 1.000000
| 16>   hftyp rohf
| 17>   rohf_case sahf
| 18>   rohf_numop   2
| 19>   rohf_norb[1] 5
| 20>   rohf_nel[1]  5
| 21> end
| 22>
| 23> %basis
| 24>   NewECP 43
| 25>     N_core 28
| 26>     lmax f
| 27>     s 4
| 28>       1      10.4223462000    195.1591659000  2
| 29>       2       5.0365160000     28.0926033000  2
| 30>       3      10.4000000000     26.5624475000  2
| 31>       4       5.2000000000      4.5856805000  2
| 32>     p 4
| 33>       1       8.9504494000    135.2845662000  2
| 34>       2       4.8544394000     21.8065043000  2
| 35>       3      10.4000000000     26.5624475000  2
| 36>       4       5.2000000000      4.5856805000  2
| 37>     d 4
| 38>       1       6.9456968000     54.3297294000  2
| 39>       2       3.9705849000     11.1550679000  2
| 40>       3      10.4000000000     26.5624475000  2
| 41>       4       5.2000000000      4.5856805000  2
| 42>     f 2
| 43>       1      10.4000000000    -26.5624475000  2
| 44>       2       5.2000000000     -4.5856805000  2
| 45>   end
| 46>   NewGTO 43
| 47>     s 3
| 48>      1       7.4344020000     -1.1287722382
| 49>      2       5.5513270000      1.8508395372
| 50>      3       3.0230860000      0.2364168552
| 51>     s 1
| 52>      1       1.0647443990      1.0000000000
| 53>     s 1
| 54>      1       0.4812780850      1.0000000000
| 55>     s 1
| 56>      1       0.0982990170      1.0000000000
| 57>     s 1
| 58>      1       0.0366599779      1.0000000000
| 59>     p 4
| 60>      1       3.4490050000     -0.7307916561
| 61>      2       2.6927370000      0.7730699593
| 62>      3       0.9442737069      0.6524898577
| 63>      4       0.4134814862      0.2749730550
| 64>     p 1
| 65>      1       0.1548815230      1.0000000000
| 66>     p 1
| 67>      1       0.0403000000      1.0000000000
| 68>     d 4
| 69>      1       5.0906268699     -0.0349826825
| 70>      2       2.0156178510      0.2313681558
| 71>      3       0.8811388724      0.4827596016
| 72>      4       0.3642709483      0.4435505265
| 73>     d 1
| 74>      1       0.1367840230      1.0000000000
| 75>   end
| 76>   NewAuxGTO 43
| 77>     S 1
| 78>      1 1310.72 1.0
| 79>     S 1
| 80>      1  655.36 1.0
| 81>     S 1
| 82>      1  327.68 1.0
| 83>     S 1
| 84>      1  163.84 1.0
| 85>     S 1
| 86>      1   81.82 1.0
| 87>     S 1
| 88>      1   40.96 1.0
| 89>     S 1
| 90>      1   20.48 1.0
| 91>     S 1
| 92>      1   10.24 1.0
| 93>     S 1
| 94>      1    5.12 1.0
| 95>     S 1
| 96>      1    2.56 1.0
| 97>     S 1
| 98>      1    1.28 1.0
| 99>     S 1
|100>      1    0.64 1.0
|101>     S 1
|102>      1    0.32 1.0
|103>     S 1
|104>      1    0.16 1.0
|105>     S 1
|106>      1    0.08 1.0
|107>     S 1
|108>      1    0.04 1.0
|109>     S 1
|110>      1    0.02 1.0
|111>     S 1
|112>      1    0.01 1.0
|113>   end
|114> end
|115>
|116> * xyz 0 6
|117> 43  0.0 0.0 0.0
|118> *
|119>
|120>
|121>                          ****END OF INPUT****

CARTESIAN COORDINATES (ANGSTROEM)
---------------------------------
  Tc     0.000000    0.000000    0.000000

 Total Charge           Charge          ....    0
 Multiplicity           Mult            ....    6
 Number of Electrons    NEL             ....   15
 Basis Dimension        Dim             ....   24

ORBITAL ENERGIES
----------------

  NO   OCC          E(Eh)            E(eV)
   0   2.0000      -3.202018       -87.1313
   1   2.0000      -1.990040       -54.1518
   2   2.0000      -1.981070       -53.9077
   3   2.0000      -1.978887       -53.8482
   4   2.0000      -0.292874        -7.9695
   5   1.0000      -0.404612       -11.0101
   6   1.0000      -0.399108       -10.8603
   7   1.0000      -0.394816       -10.7435
   8   1.0000      -0.376686       -10.2501
   9   1.0000      -0.238323        -6.4851
  10   0.0000       0.035152         0.9565
  11   0.0000       0.042152         1.1470
  12   0.0000       0.043798         1.1918
  13   0.0000       0.177360         4.8262
  14   0.0000       0.372911        10.1474

CleanUpVectors: The p-vectors have cracked symmetry
CleanUpVectors: The p-vectors have cracked symmetry
CleanUpVectors: The p-vectors have cracked symmetry
CleanUpVectors: The d-vectors have cracked symmetry at i=4
CleanUpVectors: The d-vectors have cracked symmetry at i=5
CleanUpVectors: The d-vectors have cracked symmetry at i=6
CleanUpVectors: The d-vectors have cracked symmetry at i=7
CleanUpVectors: The d-vectors have cracked symmetry at i=8
CleanUpVectors: The d-vectors have cracked symmetry at i=9
CleanUpVectors: The p-vectors have cracked symmetry
CleanUpVectors: The p-vectors have cracked symmetry
CleanUpVectors: The p-vectors have cracked symmetry
CleanUpVectors: The p-vectors have cracked symmetry
CleanUpVectors: The p-vectors have cracked symmetry
CleanUpVectors: The p-vectors have cracked symmetry
CleanUpVectors: The d-vectors have cracked symmetry at i=17
CleanUpVectors: The d-vectors have cracked symmetry at i=18
CleanUpVectors: The d-vectors have cracked symmetry at i=19
--------------------------
ATOM BASIS FOR ELEMENT Tc
--------------------------
 NewGTO Tc
 S 7
    1          7.434402000000        -0.587868044402
    2          5.551327000000         0.963922908815
    3          3.023086000000         0.123126623447
    4          1.064744399000        -0.845052218795
    5          0.481278085000        -0.459650891937
    6          0.098299017000        -0.014858172383
    7          0.036659977900         0.006082288005
 P 18
    1          3.449005000000         0.718302945007
    2          2.692737000000        -0.759858741991
    3          0.944273706900        -0.641339268807
    4          0.413481486200        -0.270273960513
    5          3.449005000000         0.036625630065
    6          2.692737000000        -0.038744523295
    7          0.944273706900        -0.032701320479
    8          0.413481486200        -0.013781029526
    9          3.449005000000        -0.005638124010
   10          2.692737000000         0.005964304959
   11          0.944273706900         0.005034018522
   12          0.413481486200         0.002121442097
   13          0.154881523000        -0.031530029277
   14          0.154881523000        -0.001607688227
   15          0.154881523000         0.000247486407
   16          0.040300000000         0.002429023861
   17          0.040300000000         0.000123853772
   18          0.040300000000        -0.000019065964
 D 18
    1          7.434402000000        -0.000076062101
    2          5.551327000000         0.000167024429
    3          3.023086000000         0.000039177433
    4          1.064744399000        -0.001214500921
    5          0.481278085000         0.000141283670
    6          0.098299017000         0.016298768595
    7          0.036659977900        -0.031283732908
    8          5.090626869900        -0.002781761187
    9          2.015617851000         0.018397987510
   10          0.881138872400         0.038388191710
   11          0.364270948300         0.035270355240
   12          5.090626869900         0.000296527146
   13          2.015617851000        -0.001961168616
   14          0.881138872400        -0.004092062611
   15          0.364270948300        -0.003759710878
   16          5.090626869900        -0.001372820815
   17          2.015617851000         0.009079550150
   18          0.881138872400         0.018944871641
 D 18
    1          5.090626869900         0.001366273052
    2          2.015617851000        -0.009036244614
    3          0.881138872400        -0.018854512777
    4          0.364270948300        -0.017323175016
    5          5.090626869900        -0.019084178550
    6          2.015617851000         0.126218771134
    7          0.881138872400         0.263360891028
    8          0.364270948300         0.241971079370
    9          5.090626869900        -0.023743309377
   10          2.015617851000         0.157033289344
   11          0.881138872400         0.327656707723
   12          0.364270948300         0.301044877700
   13          5.090626869900        -0.001161454241
   14          2.015617851000         0.007681615775
   15          0.881138872400         0.016028021481
   16          0.364270948300         0.014726247481
   17          5.090626869900        -0.001060222796
   18          2.015617851000         0.007012092143
 P 18
    1          3.449005000000         0.468063535250
    2          2.692737000000        -0.495142295517
    3          0.944273706900        -0.417912146315
    4          0.413481486200        -0.176117035748
    5          3.449005000000         0.023866144512
    6          2.692737000000        -0.025246866480
    7          0.944273706900        -0.021308969672
    8          0.413481486200        -0.008980051445
    9          3.449005000000        -0.003673937681
   10          2.692737000000         0.003886485060
   11          0.944273706900         0.003280287965
   12          0.413481486200         0.001382382872
   13          0.154881523000         1.450396928903
   14          0.154881523000         0.073954452970
   15          0.154881523000        -0.011384497036
   16          0.040300000000        -0.768359714191
   17          0.040300000000        -0.039177980327
   18          0.040300000000         0.006031031033
 D 18
    1          7.434402000000        -0.000298691196
    2          5.551327000000         0.000655894669
    3          3.023086000000         0.000153847370
    4          1.064744399000        -0.005091748420
    5          0.481278085000         0.001397543754
    6          0.098299017000         0.049778118237
    7          0.036659977900        -0.006810260909
    8          5.090626869900        -0.023887164693
    9          2.015617851000         0.157984718360
   10          0.881138872400         0.329641905261
   11          0.364270948300         0.302868840206
   12          5.090626869900        -0.002155595237
   13          2.015617851000         0.014256656697
   14          0.881138872400         0.029747126968
   15          0.364270948300         0.027331105968
   16          5.090626869900         0.000437440642
   17          2.015617851000        -0.002893141042
   18          0.881138872400        -0.006036663135
 S 18
    1          7.434402000000        -0.984500667580
    2          5.551327000000         1.614278503927
    3          3.023086000000         0.206199748625
    4          1.064744399000        -3.826384204811
    5          0.481278085000         3.914695232399
    6          0.098299017000        -1.684801264660
    7          0.036659977900         0.699994968022
    8          5.090626869900         0.005667306642
    9          2.015617851000        -0.014841032586
   10          0.881138872400        -0.013537161778
   11          0.364270948300        -0.005141856750
   12          5.090626869900         0.000492685341
   13          2.015617851000        -0.001290200031
   14          0.881138872400        -0.001176848473
   15          0.364270948300        -0.000447005537
   16          5.090626869900        -0.000055065075
   17          2.015617851000         0.000144199462
   18          0.881138872400         0.000131530703
 S 18
    1          7.434402000000        -1.846014354925
    2          5.551327000000         3.026896160897
    3          3.023086000000         0.386640363464
    4          1.064744399000        -1.593797591430
    5          0.481278085000         0.981688516713
    6          0.098299017000        -0.289751810205
    7          0.036659977900         0.121129276685
    8          5.090626869900        -0.000042595386
    9          2.015617851000         0.000111544962
   10          0.881138872400         0.000101745090
   11          0.364270948300         0.000038646113
   12          5.090626869900        -0.000003699666
   13          2.015617851000         0.000009688353
   14          0.881138872400         0.000008837175
   15          0.364270948300         0.000003356648
   16          5.090626869900         0.000000405161
   17          2.015617851000        -0.000001060999
   18          0.881138872400        -0.000000967784
 end
  // -----------------------------------------------
  // The basis set
  // -----------------------------------------------
  BAS[ATNO] = new BFNGauss[NSH];
  // Basis function   1 L = s
  InitBFNGauss(BAS[ATNO][  0]);
  BAS[ATNO][  0].l  = 0;
  BAS[ATNO][  0].ng = 7;
  BAS[ATNO][  0].a[  0] =         7.434402000000;     BAS[ATNO][  0].d[  0] =        -0.587868044402;
  BAS[ATNO][  0].a[  1] =         5.551327000000;     BAS[ATNO][  0].d[  1] =         0.963922908815;
  BAS[ATNO][  0].a[  2] =         3.023086000000;     BAS[ATNO][  0].d[  2] =         0.123126623447;
  BAS[ATNO][  0].a[  3] =         1.064744399000;     BAS[ATNO][  0].d[  3] =        -0.845052218795;
  BAS[ATNO][  0].a[  4] =         0.481278085000;     BAS[ATNO][  0].d[  4] =        -0.459650891937;
  BAS[ATNO][  0].a[  5] =         0.098299017000;     BAS[ATNO][  0].d[  5] =        -0.014858172383;
  BAS[ATNO][  0].a[  6] =         0.036659977900;     BAS[ATNO][  0].d[  6] =         0.006082288005;

FINAL SINGLE POINT ENERGY       -80.056767660890

DIPOLE MOMENT
-------------
                                X             Y             Z
Electronic contribution:      0.00000       0.00000       0.00000
Nuclear contribution   :      0.00000       0.00000       0.00000
                        -----------------------------------------
Total Dipole Moment    :      0.00000       0.00000       0.00000
                        -----------------------------------------
Magnitude (a.u.)       :      0.00000
Magnitude (Debye)      :      0.00000

Rotational constants in cm-1:     0.000000     0.000000     0.000000
Rotational constants in MHz :     0.000000     0.000000     0.000000

                             ****ORCA TERMINATED NORMALLY****
TOTAL RUN TIME: 0 days 0 hours 0 minutes 2 seconds 192 msec
