                         Program Version 4.2.0 -  RELEASE  -
|  1> # input to generate an atomic fitting density for Ru
|  2> # this file is use internally by ORCA
|  3> #
|  4> # atomic ground state (S=5): 1s2 2s2 2p6 3s2 3p6 4s2 3d10 4p6 5s2 4d6
|  5> #
|  6> ! RHF AllowRHF def2-SVP def2/J  NoMulliken NoLoewdin NoMayer NoPrintMOs
|  7>
|  8> %output print[p_atomdensfit] 2 end
|  9>
| 10> %scf
| 11>   guess hcore
| 12>   maxiter 1000
| 13>   maxdisk 500000
| 14>   SCFMode Conventional
| 15>   lshift 1.000000
| 16>   hftyp rohf
| 17>   rohf_case sahf
| 18>   rohf_numop   2
| 19>   rohf_norb[1] 5
| 20>   rohf_nel[1]  6
| 21> end
| 22>
| 23> %basis
| 24>   NewECP 44
| 25>     N_core 28
| 26>     lmax f
| 27>     s 4
| 28>       1      11.1052693000    209.8229712000  2
| 29>       2       5.4147454000     30.6547264000  2
| 30>       3      11.3600000000     28.3406163000  2
| 31>       4       5.6800000000      4.9446292000  2
| 32>     p 4
| 33>       1       9.7712707000    146.3361823000  2
| 34>       2       5.0739908000     24.1278772000  2
| 35>       3      11.3600000000     28.3406163000  2
| 36>       4       5.6800000000      4.9446292000  2
| 37>     d 4
| 38>       1       7.6714231000     67.5158967000  2
| 39>       2       4.1365647000      9.8701041000  2
| 40>       3      11.3600000000     28.3406163000  2
| 41>       4       5.6800000000      4.9446292000  2
| 42>     f 2
| 43>       1      11.3600000000    -28.3406163000  2
| 44>       2       5.6800000000     -4.9446292000  2
| 45>   end
| 46>   NewGTO 44
| 47>     s 3
| 48>      1       7.9365700000     -1.1750431009
| 49>      2       5.9842450000      1.6167268412
| 50>      3       4.8822200000      0.5097188245
| 51>     s 1
| 52>      1       1.1031002163      1.0000000000
| 53>     s 1
| 54>      1       0.4981887526      1.0000000000
| 55>     s 1
| 56>      1       0.1067871139      1.0000000000
| 57>     s 1
| 58>      1       0.0391917759      1.0000000000
| 59>     p 4
| 60>      1       3.7546090000     -0.7156369065
| 61>      2       2.9165710000      0.7578657870
| 62>      3       1.0322209568      0.6537850932
| 63>      4       0.4524955377      0.2732917945
| 64>     p 1
| 65>      1       0.1698704220      1.0000000000
| 66>     p 1
| 67>      1       0.0430000000      1.0000000000
| 68>     d 4
| 69>      1       5.7341846619     -0.0382893887
| 70>      2       2.2483686294      0.2367157716
| 71>      3       0.9837697836      0.4854240615
| 72>      4       0.4037944558      0.4383270193
| 73>     d 1
| 74>      1       0.1497861817      1.0000000000
| 75>   end
| 76>   NewAuxGTO 44
| 77>     S 1
| 78>      1 1310.72 1.0
| 79>     S 1
| 80>      1  655.36 1.0
| 81>     S 1
| 82>      1  327.68 1.0
| 83>     S 1
| 84>      1  163.84 1.0
| 85>     S 1
| 86>      1   81.82 1.0
| 87>     S 1
| 88>      1   40.96 1.0
| 89>     S 1
| 90>      1   20.48 1.0
| 91>     S 1
| 92>      1   10.24 1.0
| 93>     S 1
| 94>      1    5.12 1.0
| 95>     S 1
| 96>      1    2.56 1.0
| 97>     S 1
| 98>      1    1.28 1.0
| 99>     S 1
|100>      1    0.64 1.0
|101>     S 1
|102>      1    0.32 1.0
|103>     S 1
|104>      1    0.16 1.0
|105>     S 1
|106>      1    0.08 1.0
|107>     S 1
|108>      1    0.04 1.0
|109>     S 1
|110>      1    0.02 1.0
|111>     S 1
|112>      1    0.01 1.0
|113>   end
|114> end
|115>
|116> * xyz 0 5
|117> 44  0.0 0.0 0.0
|118> *
|119>
|120>
|121>                          ****END OF INPUT****

CARTESIAN COORDINATES (ANGSTROEM)
---------------------------------
  Ru     0.000000    0.000000    0.000000

 Total Charge           Charge          ....    0
 Multiplicity           Mult            ....    5
 Number of Electrons    NEL             ....   16
 Basis Dimension        Dim             ....   24

ORBITAL ENERGIES
----------------

  NO   OCC          E(Eh)            E(eV)
   0   2.0000      -3.514131       -95.6244
   1   2.0000      -2.208945       -60.1084
   2   2.0000      -2.200936       -59.8905
   3   2.0000      -2.199776       -59.8590
   4   2.0000      -0.370460       -10.0807
   5   1.2000      -0.437356       -11.9011
   6   1.2000      -0.431569       -11.7436
   7   1.2000      -0.428842       -11.6694
   8   1.2000      -0.409720       -11.1490
   9   1.2000      -0.246915        -6.7189
  10   0.0000       0.012902         0.3511
  11   0.0000       0.018374         0.5000
  12   0.0000       0.019157         0.5213
  13   0.0000       0.158319         4.3081
  14   0.0000       0.368682        10.0324

CleanUpVectors: The p-vectors have cracked symmetry
CleanUpVectors: The p-vectors have cracked symmetry
CleanUpVectors: The p-vectors have cracked symmetry
CleanUpVectors: The d-vectors have cracked symmetry at i=4
CleanUpVectors: The d-vectors have cracked symmetry at i=5
CleanUpVectors: The d-vectors have cracked symmetry at i=6
CleanUpVectors: The d-vectors have cracked symmetry at i=7
CleanUpVectors: The d-vectors have cracked symmetry at i=8
CleanUpVectors: The p-vectors have cracked symmetry
CleanUpVectors: The p-vectors have cracked symmetry
CleanUpVectors: The p-vectors have cracked symmetry
CleanUpVectors: The p-vectors have cracked symmetry
CleanUpVectors: The p-vectors have cracked symmetry
CleanUpVectors: The p-vectors have cracked symmetry
CleanUpVectors: The d-vectors have cracked symmetry at i=17
CleanUpVectors: The d-vectors have cracked symmetry at i=18
CleanUpVectors: The d-vectors have cracked symmetry at i=19
--------------------------
ATOM BASIS FOR ELEMENT Ru
--------------------------
 NewGTO Ru
 S 7
    1          7.936570000000        -0.588365552456
    2          5.984245000000         0.809524672213
    3          4.882220000000         0.255225529637
    4          1.103100216300        -0.880799513198
    5          0.498188752600        -0.400550352201
    6          0.106787113900        -0.012737218672
    7          0.039191775900         0.002868309391
 P 18
    1          3.754609000000         0.004225472230
    2          2.916571000000        -0.004474812307
    3          1.032220956800        -0.003860268707
    4          0.452495537700        -0.001613649153
    5          3.754609000000        -0.079878201844
    6          2.916571000000         0.084591719285
    7          1.032220956800         0.072974405264
    8          0.452495537700         0.030504375788
    9          3.754609000000         0.700352128857
   10          2.916571000000        -0.741679072854
   11          1.032220956800        -0.639821364268
   12          0.452495537700        -0.267454750221
   13          0.169870422000        -0.000178955896
   14          0.169870422000         0.003382976955
   15          0.169870422000        -0.029661097242
   16          0.043000000000         0.000011273416
   17          0.043000000000        -0.000213112322
   18          0.043000000000         0.001868515627
 D 18
    1          7.936570000000        -0.000026385784
    2          5.984245000000         0.000048147788
    3          4.882220000000         0.000018606401
    4          1.103100216300        -0.000474782770
    5          0.498188752600         0.000366496342
    6          0.106787113900         0.003502382105
    7          0.039191775900        -0.013229310709
    8          5.734184661900         0.005345013045
    9          2.248368629400        -0.033044374173
   10          0.983769783600        -0.067762845764
   11          0.403794455800        -0.061188326988
   12          5.734184661900        -0.032751888908
   13          2.248368629400         0.202481390211
   14          0.983769783600         0.415220913038
   15          0.403794455800         0.374935153813
   16          5.734184661900        -0.003786152761
   17          2.248368629400         0.023407061398
   18          0.983769783600         0.047999973702
 D 18
    1          5.734184661900        -0.000267554560
    2          2.248368629400         0.001654097554
    3          0.983769783600         0.003391995165
    4          0.403794455800         0.003062895410
    5          5.734184661900         0.003051765037
    6          2.248368629400        -0.018866869911
    7          0.983769783600        -0.038689575089
    8          0.403794455800        -0.034935816891
    9          5.734184661900        -0.025587178786
   10          2.248368629400         0.158187136828
   11          0.983769783600         0.324388366339
   12          0.403794455800         0.292915405292
   13          5.734184661900        -0.005130668495
   14          2.248368629400         0.031719235872
   15          0.983769783600         0.065045434872
   16          0.403794455800         0.058734566017
   17          5.734184661900         0.021513624466
   18          2.248368629400        -0.133003278149
 P 18
    1          3.754609000000         0.002734080279
    2          2.916571000000        -0.002895415096
    3          1.032220956800        -0.002497776336
    4          0.452495537700        -0.001044107283
    5          3.754609000000        -0.051684972602
    6          2.916571000000         0.054734841204
    7          1.032220956800         0.047217889858
    8          0.452495537700         0.019737773140
    9          3.754609000000         0.453160934477
   10          2.916571000000        -0.479901420854
   11          1.032220956800        -0.413994668372
   12          0.452495537700        -0.173055866537
   13          0.169870422000         0.008613009226
   14          0.169870422000        -0.162820071250
   15          0.169870422000         1.427565729927
   16          0.043000000000        -0.004566515911
   17          0.043000000000         0.086325281488
   18          0.043000000000        -0.756878513401
 D 18
    1          7.936570000000         0.000213702230
    2          5.984245000000        -0.000389955807
    3          4.882220000000        -0.000150695900
    4          1.103100216300         0.003669689787
    5          0.498188752600         0.000058153689
    6          0.106787113900        -0.049213909124
    7          0.039191775900         0.032660322815
    8          5.734184661900        -0.012403174822
    9          2.248368629400         0.076679915716
   10          0.983769783600         0.157244597057
   11          0.403794455800         0.141988337612
   12          5.734184661900        -0.001845957461
   13          2.248368629400         0.011412228288
   14          0.983769783600         0.023402624036
   15          0.403794455800         0.021132043611
   16          5.734184661900         0.000052093242
   17          2.248368629400        -0.000322055073
   18          0.983769783600        -0.000660426133
 S 18
    1          7.936570000000        -0.914765615047
    2          5.984245000000         1.258614362418
    3          4.882220000000         0.396813745502
    4          1.103100216300        -3.697679768169
    5          0.498188752600         3.960053832124
    6          0.106787113900        -1.773476065346
    7          0.039191775900         0.718524702745
    8          5.734184661900        -0.002293237866
    9          2.248368629400         0.005558962039
   10          0.983769783600         0.004987854491
   11          0.403794455800         0.001848662325
   12          5.734184661900         0.000269076309
   13          2.248368629400        -0.000652258978
   14          0.983769783600        -0.000585248262
   15          0.403794455800        -0.000216912184
   16          5.734184661900         0.000078110258
   17          2.248368629400        -0.000189344492
   18          0.983769783600        -0.000169891927
 S 18
    1          7.936570000000        -1.816812991574
    2          5.984245000000         2.499729862394
    3          4.882220000000         0.788110480111
    4          1.103100216300        -1.453631760173
    5          0.498188752600         0.941436926755
    6          0.106787113900        -0.288965434943
    7          0.039191775900         0.117358194915
    8          5.734184661900         0.000022422162
    9          2.248368629400        -0.000054352821
   10          0.983769783600        -0.000048768810
   11          0.403794455800        -0.000018075319
   12          5.734184661900        -0.000002748316
   13          2.248368629400         0.000006662101
   14          0.983769783600         0.000005977661
   15          0.403794455800         0.000002215517
   16          5.734184661900        -0.000000776897
   17          2.248368629400         0.000001883251
   18          0.983769783600         0.000001689773
 end
  // -----------------------------------------------
  // The basis set
  // -----------------------------------------------
  BAS[ATNO] = new BFNGauss[NSH];
  // Basis function   1 L = s
  InitBFNGauss(BAS[ATNO][  0]);
  BAS[ATNO][  0].l  = 0;
  BAS[ATNO][  0].ng = 7;
  BAS[ATNO][  0].a[  0] =         7.936570000000;     BAS[ATNO][  0].d[  0] =         0.588365552456;
  BAS[ATNO][  0].a[  1] =         5.984245000000;     BAS[ATNO][  0].d[  1] =        -0.809524672213;
  BAS[ATNO][  0].a[  2] =         4.882220000000;     BAS[ATNO][  0].d[  2] =        -0.255225529637;
  BAS[ATNO][  0].a[  3] =         1.103100216300;     BAS[ATNO][  0].d[  3] =         0.880799513198;
  BAS[ATNO][  0].a[  4] =         0.498188752600;     BAS[ATNO][  0].d[  4] =         0.400550352201;
  BAS[ATNO][  0].a[  5] =         0.106787113900;     BAS[ATNO][  0].d[  5] =         0.012737218672;
  BAS[ATNO][  0].a[  6] =         0.039191775900;     BAS[ATNO][  0].d[  6] =        -0.002868309391;

FINAL SINGLE POINT ENERGY       -94.066590934440

DIPOLE MOMENT
-------------
                                X             Y             Z
Electronic contribution:      0.00000       0.00000      -0.00000
Nuclear contribution   :      0.00000       0.00000       0.00000
                        -----------------------------------------
Total Dipole Moment    :      0.00000       0.00000      -0.00000
                        -----------------------------------------
Magnitude (a.u.)       :      0.00000
Magnitude (Debye)      :      0.00000

Rotational constants in cm-1:     0.000000     0.000000     0.000000
Rotational constants in MHz :     0.000000     0.000000     0.000000

                             ****ORCA TERMINATED NORMALLY****
TOTAL RUN TIME: 0 days 0 hours 0 minutes 1 seconds 177 msec
