                         Program Version 4.2.0 -  RELEASE  -
|  1> #
|  2> # 44_Ru CCSD(T)/Def2-SVP
|  3> #
|  4> ! CCSD(T) Def2-SVP tightscf
|  5>
|  6> *xyz 0 5
|  7>  Ru 0.0 0.0 0.0
|  8> *
|  9>
| 10> %maxcore 5000
| 11>
| 12> %pal
| 13> nprocs 24
| 14> end
| 15>
| 16>
| 17>                          ****END OF INPUT****

CARTESIAN COORDINATES (ANGSTROEM)
---------------------------------
  Ru     0.000000    0.000000    0.000000

 Total Charge           Charge          ....    0
 Multiplicity           Mult            ....    5
 Number of Electrons    NEL             ....   16
 Basis Dimension        Dim             ....   31

ORBITAL ENERGIES
----------------
                 SPIN UP ORBITALS
  NO   OCC          E(Eh)            E(eV)
   0   1.0000      -3.578424       -97.3739
   1   1.0000      -2.313202       -62.9454
   2   1.0000      -2.313201       -62.9454
   3   1.0000      -2.256146       -61.3929
   4   1.0000      -0.450795       -12.2668
   5   1.0000      -0.450795       -12.2667
   6   1.0000      -0.423280       -11.5180
   7   1.0000      -0.393029       -10.6949
   8   1.0000      -0.393029       -10.6949
   9   1.0000      -0.238274        -6.4838
  10   0.0000       0.041651         1.1334
  11   0.0000       0.041651         1.1334
  12   0.0000       0.049733         1.3533
  13   0.0000       0.194509         5.2929
  14   0.0000       0.423790        11.5319

                 SPIN DOWN ORBITALS
  NO   OCC          E(Eh)            E(eV)
   0   1.0000      -3.392737       -92.3211
   1   1.0000      -2.089083       -56.8468
   2   1.0000      -2.049701       -55.7752
   3   1.0000      -2.049700       -55.7752
   4   1.0000      -0.315009        -8.5718
   5   1.0000      -0.315009        -8.5718
   6   0.0000       0.024415         0.6644
   7   0.0000       0.087290         2.3753
   8   0.0000       0.087290         2.3753
   9   0.0000       0.089957         2.4479
  10   0.0000       0.173833         4.7302

E(0)                                       ...    -94.087566620
E(0)                                       ...    -94.087566620
E(CORR)                                    ...     -0.265586508
E(TOT)                                     ...    -94.353153128
E(CCSD(T))                                 ...    -94.361054330

MULLIKEN ATOMIC CHARGES AND SPIN DENSITIES
------------------------------------------
   0 Ru:   -0.000000    4.000000
Sum of atomic charges       :   -0.0000000

LOEWDIN ATOMIC CHARGES AND SPIN DENSITIES
-----------------------------------------
   0 Ru:   -0.000000    4.000000

FINAL SINGLE POINT ENERGY       -94.361054329554

DIPOLE MOMENT
-------------
                                X             Y             Z
Electronic contribution:      0.00000      -0.00000      -0.00000
Nuclear contribution   :      0.00000       0.00000       0.00000
                        -----------------------------------------
Total Dipole Moment    :      0.00000      -0.00000      -0.00000
                        -----------------------------------------
Magnitude (a.u.)       :      0.00000
Magnitude (Debye)      :      0.00000

Rotational constants in cm-1:     0.000000     0.000000     0.000000
Rotational constants in MHz :     0.000000     0.000000     0.000000

                             ****ORCA TERMINATED NORMALLY****
TOTAL RUN TIME: 0 days 0 hours 0 minutes 17 seconds 580 msec
