                         Program Version 4.2.0 -  RELEASE  -
|  1> #
|  2> # 45_Rh CCSD(T)/Def2-SVP
|  3> #
|  4> ! CCSD(T) Def2-SVP tightscf
|  5>
|  6> *xyz 0 4
|  7>  Rh 0.0 0.0 0.0
|  8> *
|  9>
| 10> %maxcore 5000
| 11>
| 12> %pal
| 13> nprocs 24
| 14> end
| 15>
| 16>
| 17>                          ****END OF INPUT****

CARTESIAN COORDINATES (ANGSTROEM)
---------------------------------
  Rh     0.000000    0.000000    0.000000

 Total Charge           Charge          ....    0
 Multiplicity           Mult            ....    4
 Number of Electrons    NEL             ....   17
 Basis Dimension        Dim             ....   31

ORBITAL ENERGIES
----------------
                 SPIN UP ORBITALS
  NO   OCC          E(Eh)            E(eV)
   0   1.0000      -3.828057      -104.1667
   1   1.0000      -2.449745       -66.6610
   2   1.0000      -2.449745       -66.6610
   3   1.0000      -2.449745       -66.6610
   4   1.0000      -0.480043       -13.0626
   5   1.0000      -0.480043       -13.0626
   6   1.0000      -0.440446       -11.9851
   7   1.0000      -0.440446       -11.9851
   8   1.0000      -0.440446       -11.9851
   9   1.0000      -0.236891        -6.4461
  10   0.0000       0.044765         1.2181
  11   0.0000       0.044765         1.2181
  12   0.0000       0.044765         1.2181
  13   0.0000       0.177025         4.8171
  14   0.0000       0.427878        11.6432

                 SPIN DOWN ORBITALS
  NO   OCC          E(Eh)            E(eV)
   0   1.0000      -3.692543      -100.4792
   1   1.0000      -2.284965       -62.1771
   2   1.0000      -2.284965       -62.1771
   3   1.0000      -2.284965       -62.1771
   4   1.0000      -0.389014       -10.5856
   5   1.0000      -0.389014       -10.5856
   6   1.0000      -0.389013       -10.5856
   7   0.0000       0.019368         0.5270
   8   0.0000       0.083853         2.2818
   9   0.0000       0.083853         2.2818
  10   0.0000       0.083853         2.2818
  11   0.0000       0.170975         4.6525

E(0)                                       ...   -109.716915632
E(0)                                       ...   -109.716915632
E(CORR)                                    ...     -0.264049406
E(TOT)                                     ...   -109.980965037
E(CCSD(T))                                 ...   -109.987910657

MULLIKEN ATOMIC CHARGES AND SPIN DENSITIES
------------------------------------------
   0 Rh:   -0.000000    3.000000
Sum of atomic charges       :   -0.0000000

LOEWDIN ATOMIC CHARGES AND SPIN DENSITIES
-----------------------------------------
   0 Rh:   -0.000000    3.000000

FINAL SINGLE POINT ENERGY      -109.987910656601

DIPOLE MOMENT
-------------
                                X             Y             Z
Electronic contribution:     -0.00000      -0.00000       0.00000
Nuclear contribution   :      0.00000       0.00000       0.00000
                        -----------------------------------------
Total Dipole Moment    :     -0.00000      -0.00000       0.00000
                        -----------------------------------------
Magnitude (a.u.)       :      0.00000
Magnitude (Debye)      :      0.00000

Rotational constants in cm-1:     0.000000     0.000000     0.000000
Rotational constants in MHz :     0.000000     0.000000     0.000000

                             ****ORCA TERMINATED NORMALLY****
TOTAL RUN TIME: 0 days 0 hours 0 minutes 15 seconds 320 msec
