                         Program Version 4.2.0 -  RELEASE  -
|  1> # input to generate an atomic fitting density for Rh
|  2> # this file is use internally by ORCA
|  3> #
|  4> # atomic ground state (S=4): 1s2 2s2 2p6 3s2 3p6 4s2 3d10 4p6 5s2 4d7
|  5> #
|  6> ! RHF AllowRHF def2-SVP def2/J  NoMulliken NoLoewdin NoMayer NoPrintMOs
|  7>
|  8> %output print[p_atomdensfit] 2 end
|  9>
| 10> %scf
| 11>   guess hcore
| 12>   maxiter 1000
| 13>   maxdisk 500000
| 14>   SCFMode Conventional
| 15>   lshift 1.000000
| 16>   hftyp rohf
| 17>   rohf_case sahf
| 18>   rohf_numop   2
| 19>   rohf_norb[1] 5
| 20>   rohf_nel[1]  7
| 21> end
| 22>
| 23> %basis
| 24>   NewECP 45
| 25>     N_core 28
| 26>     lmax f
| 27>     s 4
| 28>       1      11.7200000000    225.3477535000  2
| 29>       2       5.8200000000     32.8231890000  2
| 30>       3      12.3100000000     30.0934557000  2
| 31>       4       6.1600000000      5.2184819000  2
| 32>     p 4
| 33>       1      10.4200000000    158.7094116000  2
| 34>       2       5.4500000000     26.4441005000  2
| 35>       3      12.3100000000     30.0934557000  2
| 36>       4       6.1600000000      5.2184819000  2
| 37>     d 4
| 38>       1       8.8200000000     62.7586257000  2
| 39>       2       3.8700000000     10.9787195000  2
| 40>       3      12.3100000000     30.0934557000  2
| 41>       4       6.1600000000      5.2184819000  2
| 42>     f 2
| 43>       1      12.3100000000    -30.0934557000  2
| 44>       2       6.1600000000     -5.2184819000  2
| 45>   end
| 46>   NewGTO 45
| 47>     s 3
| 48>      1       7.9177440000      2.4223042912
| 49>      2       6.8412070000     -3.1069619741
| 50>      3       2.9598400000     -0.2804595186
| 51>     s 1
| 52>      1       1.3166643441      1.0000000000
| 53>     s 1
| 54>      1       0.5690715217      1.0000000000
| 55>     s 1
| 56>      1       0.1005969519      1.0000000000
| 57>     s 1
| 58>      1       0.0370714608      1.0000000000
| 59>     p 4
| 60>      1       4.1360790000     -0.5575913712
| 61>      2       2.9462810000      0.6201090286
| 62>      3       1.0792431924      0.6467329769
| 63>      4       0.4661121777      0.2622890941
| 64>     p 1
| 65>      1       0.1745316999      1.0000000000
| 66>     p 1
| 67>      1       0.0410000000      1.0000000000
| 68>     d 4
| 69>      1       6.8847131641     -0.0174329143
| 70>      2       2.3837304391      0.2517079940
| 71>      3       1.0184384022      0.4813626355
| 72>      4       0.3995749464      0.4321281139
| 73>     d 1
| 74>      1       0.1395112026      1.0000000000
| 75>   end
| 76>   NewAuxGTO 45
| 77>     S 1
| 78>      1 1310.72 1.0
| 79>     S 1
| 80>      1  655.36 1.0
| 81>     S 1
| 82>      1  327.68 1.0
| 83>     S 1
| 84>      1  163.84 1.0
| 85>     S 1
| 86>      1   81.82 1.0
| 87>     S 1
| 88>      1   40.96 1.0
| 89>     S 1
| 90>      1   20.48 1.0
| 91>     S 1
| 92>      1   10.24 1.0
| 93>     S 1
| 94>      1    5.12 1.0
| 95>     S 1
| 96>      1    2.56 1.0
| 97>     S 1
| 98>      1    1.28 1.0
| 99>     S 1
|100>      1    0.64 1.0
|101>     S 1
|102>      1    0.32 1.0
|103>     S 1
|104>      1    0.16 1.0
|105>     S 1
|106>      1    0.08 1.0
|107>     S 1
|108>      1    0.04 1.0
|109>     S 1
|110>      1    0.02 1.0
|111>     S 1
|112>      1    0.01 1.0
|113>   end
|114> end
|115>
|116> * xyz 0 4
|117> 45  0.0 0.0 0.0
|118> *
|119>
|120>
|121>                          ****END OF INPUT****

CARTESIAN COORDINATES (ANGSTROEM)
---------------------------------
  Rh     0.000000    0.000000    0.000000

 Total Charge           Charge          ....    0
 Multiplicity           Mult            ....    4
 Number of Electrons    NEL             ....   17
 Basis Dimension        Dim             ....   24

ORBITAL ENERGIES
----------------

  NO   OCC          E(Eh)            E(eV)
   0   2.0000      -3.825660      -104.1015
   1   2.0000      -2.428748       -66.0896
   2   2.0000      -2.422115       -65.9091
   3   2.0000      -2.421911       -65.9036
   4   2.0000      -0.455244       -12.3878
   5   1.4000      -0.491783       -13.3821
   6   1.4000      -0.485892       -13.2218
   7   1.4000      -0.485342       -13.2068
   8   1.4000      -0.467316       -12.7163
   9   1.4000      -0.254366        -6.9216
  10   0.0000       0.005901         0.1606
  11   0.0000       0.009700         0.2639
  12   0.0000       0.009816         0.2671
  13   0.0000       0.127457         3.4683
  14   0.0000       0.346446         9.4273

CleanUpVectors: The p-vectors have cracked symmetry
CleanUpVectors: The p-vectors have cracked symmetry
CleanUpVectors: The p-vectors have cracked symmetry
CleanUpVectors: The d-vectors have cracked symmetry at i=4
CleanUpVectors: The d-vectors have cracked symmetry at i=5
CleanUpVectors: The d-vectors have cracked symmetry at i=6
CleanUpVectors: The d-vectors have cracked symmetry at i=7
CleanUpVectors: The d-vectors have cracked symmetry at i=8
CleanUpVectors: The p-vectors have cracked symmetry
CleanUpVectors: The p-vectors have cracked symmetry
CleanUpVectors: The p-vectors have cracked symmetry
CleanUpVectors: The p-vectors have cracked symmetry
CleanUpVectors: The p-vectors have cracked symmetry
CleanUpVectors: The p-vectors have cracked symmetry
CleanUpVectors: The d-vectors have cracked symmetry at i=17
CleanUpVectors: The d-vectors have cracked symmetry at i=18
CleanUpVectors: The d-vectors have cracked symmetry at i=19
--------------------------
ATOM BASIS FOR ELEMENT Rh
--------------------------
 NewGTO Rh
 S 7
    1          7.917744000000        -1.406326946444
    2          6.841207000000         1.803821411549
    3          2.959840000000         0.162827510906
    4          1.316664344100        -0.882601448526
    5          0.569071521700        -0.481203403378
    6          0.100596951900        -0.012864940649
    7          0.037071460800         0.001185647157
 P 17
    1          4.136079000000         0.000534248125
    2          2.946281000000        -0.000594148517
    3          1.079243192400        -0.000619657868
    4          0.466112177700        -0.000251308510
    5          4.136079000000         0.549304847628
    6          2.946281000000        -0.610893412383
    7          1.079243192400        -0.637121694633
    8          0.466112177700        -0.258391141454
    9          4.136079000000        -0.070026633258
   10          2.946281000000         0.077878083788
   11          1.079243192400         0.081221724956
   12          0.466112177700         0.032940291312
   13          0.174531699900        -0.000013111962
   14          0.174531699900        -0.013481497079
   15          0.174531699900         0.001718651958
   16          0.041000000000        -0.001388138950
   17          0.041000000000         0.000176963115
 D 18
    1          7.917744000000        -0.000010316289
    2          6.841207000000         0.000015314382
    3          2.959840000000         0.000003195201
    4          1.316664344100        -0.000062640989
    5          0.569071521700         0.000047458229
    6          0.100596951900         0.000336003403
    7          0.037071460800        -0.001688000739
    8          6.884713164100         0.000526534176
    9          2.383730439100        -0.007602450112
   10          1.018438402200        -0.014538812867
   11          0.399574946400        -0.013051760397
   12          6.884713164100        -0.002045152936
   13          2.383730439100         0.029529276298
   14          1.018438402200         0.056471350145
   15          0.399574946400         0.050695372319
   16          6.884713164100        -0.016036150864
   17          2.383730439100         0.231540595904
   18          1.018438402200         0.442794802416
 D 18
    1          6.884713164100        -0.000019506929
    2          2.383730439100         0.000281653997
    3          1.018438402200         0.000538630927
    4          0.399574946400         0.000483538916
    5          6.884713164100        -0.011578344392
    6          2.383730439100         0.167175825607
    7          1.018438402200         0.319704570074
    8          0.399574946400         0.287004687698
    9          6.884713164100         0.001487050758
   10          2.383730439100        -0.021471026407
   11          1.018438402200        -0.041060872538
   12          0.399574946400        -0.036861102413
   13          6.884713164100         0.002852835357
   14          2.383730439100        -0.041191131478
   15          1.018438402200        -0.078773309072
   16          0.399574946400        -0.070716252082
   17          6.884713164100         0.010962411897
   18          2.383730439100        -0.158282583197
 P 18
    1          4.136079000000         0.000322161159
    2          2.946281000000        -0.000358282165
    3          1.079243192400        -0.000373664759
    4          0.466112177700        -0.000151543519
    5          4.136079000000         0.331240631759
    6          2.946281000000        -0.368379636060
    7          1.079243192400        -0.384195758601
    8          0.466112177700        -0.155814472247
    9          4.136079000000        -0.042227310283
   10          2.946281000000         0.046961875151
   11          1.079243192400         0.048978150481
   12          0.466112177700         0.019863583858
   13          0.174531699900         0.001336149135
   14          0.174531699900         1.373805844560
   15          0.174531699900        -0.175135898510
   16          0.041000000000        -0.000700691519
   17          0.041000000000        -0.720439117994
   18          0.041000000000         0.091843219878
 D 18
    1          7.917744000000         0.000352388882
    2          6.841207000000        -0.000523116190
    3          2.959840000000        -0.000109143256
    4          1.316664344100         0.001939387837
    5          0.569071521700         0.001025550935
    6          0.100596951900        -0.045000784455
    7          0.037071460800         0.041233270868
    8          6.884713164100        -0.004861822593
    9          2.383730439100         0.070198223377
   10          1.018438402200         0.134246041515
   11          0.399574946400         0.120515146877
   12          6.884713164100        -0.000006272711
   13          2.383730439100         0.000090569561
   14          1.018438402200         0.000173203886
   15          0.399574946400         0.000155488322
   16          6.884713164100        -0.000177776176
   17          2.383730439100         0.002566850493
   18          1.018438402200         0.004908806823
 S 18
    1          7.917744000000        -2.415964402937
    2          6.841207000000         3.098830133759
    3          2.959840000000         0.279725472916
    4          1.316664344100        -3.729570122859
    5          0.569071521700         3.532240426949
    6          0.100596951900        -1.462766585088
    7          0.037071460800         0.639518422887
    8          6.884713164100        -0.000671034785
    9          2.383730439100         0.003354620050
   10          1.018438402200         0.002740919816
   11          0.399574946400         0.000965383695
   12          6.884713164100         0.000004943312
   13          2.383730439100        -0.000024712482
   14          1.018438402200        -0.000020191536
   15          0.399574946400        -0.000007111693
   16          6.884713164100         0.000021051953
   17          2.383730439100        -0.000105242388
   18          1.018438402200        -0.000085989156
 S 18
    1          7.917744000000        -4.271278842820
    2          6.841207000000         5.478544125786
    3          2.959840000000         0.494537706272
    4          1.316664344100        -1.686968617286
    5          0.569071521700         0.909520272656
    6          0.100596951900        -0.248250806115
    7          0.037071460800         0.108891858460
    8          6.884713164100         0.000006974927
    9          2.383730439100        -0.000034868875
   10          1.018438402200        -0.000028489901
   11          0.399574946400        -0.000010034473
   12          6.884713164100        -0.000000052890
   13          2.383730439100         0.000000264404
   14          1.018438402200         0.000000216034
   15          6.884713164100        -0.000000230650
   16          2.383730439100         0.000001153060
   17          1.018438402200         0.000000942117
   18          0.399574946400         0.000000331825
 end
  // -----------------------------------------------
  // The basis set
  // -----------------------------------------------
  BAS[ATNO] = new BFNGauss[NSH];
  // Basis function   1 L = s
  InitBFNGauss(BAS[ATNO][  0]);
  BAS[ATNO][  0].l  = 0;
  BAS[ATNO][  0].ng = 7;
  BAS[ATNO][  0].a[  0] =         7.917744000000;     BAS[ATNO][  0].d[  0] =        -1.406326946444;
  BAS[ATNO][  0].a[  1] =         6.841207000000;     BAS[ATNO][  0].d[  1] =         1.803821411549;
  BAS[ATNO][  0].a[  2] =         2.959840000000;     BAS[ATNO][  0].d[  2] =         0.162827510906;
  BAS[ATNO][  0].a[  3] =         1.316664344100;     BAS[ATNO][  0].d[  3] =        -0.882601448526;
  BAS[ATNO][  0].a[  4] =         0.569071521700;     BAS[ATNO][  0].d[  4] =        -0.481203403378;
  BAS[ATNO][  0].a[  5] =         0.100596951900;     BAS[ATNO][  0].d[  5] =        -0.012864940649;
  BAS[ATNO][  0].a[  6] =         0.037071460800;     BAS[ATNO][  0].d[  6] =         0.001185647157;

FINAL SINGLE POINT ENERGY      -109.658763829551

DIPOLE MOMENT
-------------
                                X             Y             Z
Electronic contribution:      0.00000      -0.00000      -0.00000
Nuclear contribution   :      0.00000       0.00000       0.00000
                        -----------------------------------------
Total Dipole Moment    :      0.00000      -0.00000      -0.00000
                        -----------------------------------------
Magnitude (a.u.)       :      0.00000
Magnitude (Debye)      :      0.00000

Rotational constants in cm-1:     0.000000     0.000000     0.000000
Rotational constants in MHz :     0.000000     0.000000     0.000000

                             ****ORCA TERMINATED NORMALLY****
TOTAL RUN TIME: 0 days 0 hours 0 minutes 1 seconds 237 msec
