                         Program Version 4.2.0 -  RELEASE  -
|  1> #
|  2> # 46_Pd CCSD(T)/Def2-SVP
|  3> #
|  4> ! CCSD(T) Def2-SVP tightscf
|  5>
|  6> *xyz 0 1
|  7>  Pd 0.0 0.0 0.0
|  8> *
|  9>
| 10> %maxcore 5000
| 11>
| 12> %pal
| 13> nprocs 24
| 14> end
| 15>
| 16>
| 17>                          ****END OF INPUT****

CARTESIAN COORDINATES (ANGSTROEM)
---------------------------------
  Pd     0.000000    0.000000    0.000000

 Total Charge           Charge          ....    0
 Multiplicity           Mult            ....    1
 Number of Electrons    NEL             ....   18
 Basis Dimension        Dim             ....   31

ORBITAL ENERGIES
----------------

  NO   OCC          E(Eh)            E(eV)
   0   2.0000      -3.882858      -105.6579
   1   2.0000      -2.429140       -66.1003
   2   2.0000      -2.429140       -66.1003
   3   2.0000      -2.429140       -66.1003
   4   2.0000      -0.321458        -8.7473
   5   2.0000      -0.321458        -8.7473
   6   2.0000      -0.321458        -8.7473
   7   2.0000      -0.321458        -8.7473
   8   2.0000      -0.321458        -8.7473
   9   0.0000       0.029168         0.7937
  10   0.0000       0.081202         2.2096
  11   0.0000       0.081202         2.2096
  12   0.0000       0.081202         2.2096
  13   0.0000       0.259832         7.0704

E(0)                                       ...   -127.000351010
E(0)                                       ...   -127.000351010
E(CORR)                                    ...     -0.310003627
E(TOT)                                     ...   -127.310354637
E(CCSD(T))                                 ...   -127.321679787

MULLIKEN ATOMIC CHARGES
-----------------------
   0 Pd:   -0.000000
Sum of atomic charges:   -0.0000000

LOEWDIN ATOMIC CHARGES
----------------------
   0 Pd:   -0.000000

FINAL SINGLE POINT ENERGY      -127.321679787359

DIPOLE MOMENT
-------------
                                X             Y             Z
Electronic contribution:     -0.00000       0.00000      -0.00000
Nuclear contribution   :      0.00000       0.00000       0.00000
                        -----------------------------------------
Total Dipole Moment    :     -0.00000       0.00000      -0.00000
                        -----------------------------------------
Magnitude (a.u.)       :      0.00000
Magnitude (Debye)      :      0.00000

Rotational constants in cm-1:     0.000000     0.000000     0.000000
Rotational constants in MHz :     0.000000     0.000000     0.000000

                             ****ORCA TERMINATED NORMALLY****
TOTAL RUN TIME: 0 days 0 hours 0 minutes 6 seconds 977 msec
