                         Program Version 4.2.0 -  RELEASE  -
|  1> # input to generate an atomic fitting density for Pd
|  2> # this file is use internally by ORCA
|  3> #
|  4> # atomic ground state (S=3): 1s2 2s2 2p6 3s2 3p6 4s2 3d10 4p6 5s2 4d8
|  5> #
|  6> ! RHF AllowRHF def2-SVP def2/J  NoMulliken NoLoewdin NoMayer NoPrintMOs
|  7>
|  8> %output print[p_atomdensfit] 2 end
|  9>
| 10> %scf
| 11>   guess hcore
| 12>   maxiter 1000
| 13>   maxdisk 500000
| 14>   SCFMode Conventional
| 15>   lshift 1.000000
| 16>   hftyp rohf
| 17>   rohf_case sahf
| 18>   rohf_numop   2
| 19>   rohf_norb[1] 5
| 20>   rohf_nel[1]  8
| 21> end
| 22>
| 23> %basis
| 24>   NewECP 46
| 25>     N_core 28
| 26>     lmax f
| 27>     s 4
| 28>       1      12.4300000000    240.2290403000  2
| 29>       2       6.1707594000     35.1719435000  2
| 30>       3      13.2700000000     31.9295543000  2
| 31>       4       6.6300000000      5.3982169000  2
| 32>     p 4
| 33>       1      11.0800000000    170.4172760000  2
| 34>       2       5.8295541000     28.4721329000  2
| 35>       3      13.2700000000     31.9295543000  2
| 36>       4       6.6300000000      5.3982169000  2
| 37>     d 4
| 38>       1       9.5100000000     69.0138449000  2
| 39>       2       4.1397811000     11.7508616000  2
| 40>       3      13.2700000000     31.9295543000  2
| 41>       4       6.6300000000      5.3982169000  2
| 42>     f 2
| 43>       1      13.2700000000    -31.9295543000  2
| 44>       2       6.6300000000     -5.3982169000  2
| 45>   end
| 46>   NewGTO 46
| 47>     s 3
| 48>      1       8.4756400000      2.1727229431
| 49>      2       7.1657170000     -2.9039633126
| 50>      3       3.1821100000     -0.2310570076
| 51>     s 1
| 52>      1       1.3973644196      1.0000000000
| 53>     s 1
| 54>      1       0.6053295587      1.0000000000
| 55>     s 1
| 56>      1       0.1022951421      1.0000000000
| 57>     s 1
| 58>      1       0.0373389729      1.0000000000
| 59>     p 4
| 60>      1       4.2460970000     -0.8346018694
| 61>      2       3.3925940000      0.8828643810
| 62>      3       1.1975891264      0.6438870170
| 63>      4       0.5267375059      0.2760105151
| 64>     p 1
| 65>      1       0.2060709410      1.0000000000
| 66>     p 1
| 67>      1       0.0370000000      1.0000000000
| 68>     d 4
| 69>      1       7.3613290985     -0.0186922795
| 70>      2       2.6291037258      0.2533662423
| 71>      3       1.1292744634      0.4840070353
| 72>      4       0.4447165990      0.4270306822
| 73>     d 1
| 74>      1       0.1554489384      1.0000000000
| 75>   end
| 76>   NewAuxGTO 46
| 77>     S 1
| 78>      1 1310.72 1.0
| 79>     S 1
| 80>      1  655.36 1.0
| 81>     S 1
| 82>      1  327.68 1.0
| 83>     S 1
| 84>      1  163.84 1.0
| 85>     S 1
| 86>      1   81.82 1.0
| 87>     S 1
| 88>      1   40.96 1.0
| 89>     S 1
| 90>      1   20.48 1.0
| 91>     S 1
| 92>      1   10.24 1.0
| 93>     S 1
| 94>      1    5.12 1.0
| 95>     S 1
| 96>      1    2.56 1.0
| 97>     S 1
| 98>      1    1.28 1.0
| 99>     S 1
|100>      1    0.64 1.0
|101>     S 1
|102>      1    0.32 1.0
|103>     S 1
|104>      1    0.16 1.0
|105>     S 1
|106>      1    0.08 1.0
|107>     S 1
|108>      1    0.04 1.0
|109>     S 1
|110>      1    0.02 1.0
|111>     S 1
|112>      1    0.01 1.0
|113>   end
|114> end
|115>
|116> * xyz 0 3
|117> 46  0.0 0.0 0.0
|118> *
|119>
|120>
|121>                          ****END OF INPUT****

CARTESIAN COORDINATES (ANGSTROEM)
---------------------------------
  Pd     0.000000    0.000000    0.000000

 Total Charge           Charge          ....    0
 Multiplicity           Mult            ....    3
 Number of Electrons    NEL             ....   18
 Basis Dimension        Dim             ....   24

ORBITAL ENERGIES
----------------

  NO   OCC          E(Eh)            E(eV)
   0   2.0000      -4.146919      -112.8434
   1   2.0000      -2.671172       -72.6863
   2   2.0000      -2.668722       -72.6196
   3   2.0000      -2.665736       -72.5384
   4   2.0000      -0.540828       -14.7167
   5   1.6000      -0.557822       -15.1791
   6   1.6000      -0.556820       -15.1519
   7   1.6000      -0.548047       -14.9131
   8   1.6000      -0.540817       -14.7164
   9   1.6000      -0.263421        -7.1680
  10   0.0000       0.009250         0.2517
  11   0.0000       0.010382         0.2825
  12   0.0000       0.011748         0.3197
  13   0.0000       0.127554         3.4709
  14   0.0000       0.391012        10.6400

CleanUpVectors: The p-vectors have cracked symmetry
CleanUpVectors: The p-vectors have cracked symmetry
CleanUpVectors: The p-vectors have cracked symmetry
CleanUpVectors: The d-vectors have cracked symmetry at i=4
CleanUpVectors: The d-vectors have cracked symmetry at i=5
CleanUpVectors: The d-vectors have cracked symmetry at i=6
CleanUpVectors: The d-vectors have cracked symmetry at i=7
CleanUpVectors: The d-vectors have cracked symmetry at i=8
CleanUpVectors: The p-vectors have cracked symmetry
CleanUpVectors: The p-vectors have cracked symmetry
CleanUpVectors: The p-vectors have cracked symmetry
CleanUpVectors: The p-vectors have cracked symmetry
CleanUpVectors: The p-vectors have cracked symmetry
CleanUpVectors: The p-vectors have cracked symmetry
CleanUpVectors: The d-vectors have cracked symmetry at i=17
CleanUpVectors: The d-vectors have cracked symmetry at i=18
CleanUpVectors: The d-vectors have cracked symmetry at i=19
--------------------------
ATOM BASIS FOR ELEMENT Pd
--------------------------
 NewGTO Pd
 S 7
    1          8.475640000000        -1.245338587723
    2          7.165717000000         1.664463286494
    3          3.182110000000         0.132434836407
    4          1.397364419600        -0.890325850064
    5          0.605329558700        -0.463915967355
    6          0.102295142100        -0.012898366265
    7          0.037338972900        -0.000250243818
 P 18
    1          4.246097000000        -0.108337593225
    2          3.392594000000         0.114602429839
    3          1.197589126400         0.083581372494
    4          0.526737505900         0.035828238597
    5          4.246097000000         0.819799127984
    6          3.392594000000        -0.867205641646
    7          1.197589126400        -0.632466849656
    8          0.526737505900        -0.271115112354
    9          4.246097000000         0.014594253286
   10          3.392594000000        -0.015438194984
   11          1.197589126400        -0.011259320831
   12          0.526737505900        -0.004826453803
   13          0.206070941000         0.002225924106
   14          0.206070941000        -0.016843743590
   15          0.206070941000        -0.000299856211
   16          0.037000000000         0.000181315189
   17          0.037000000000        -0.001372026363
   18          0.037000000000        -0.000024425130
 D 18
    1          8.475640000000         0.000104657549
    2          7.165717000000        -0.000165451301
    3          3.182110000000        -0.000029644400
    4          1.397364419600         0.000722903848
    5          0.605329558700        -0.000597495152
    6          0.102295142100        -0.002163794677
    7          0.037338972900         0.016534655075
    8          7.361329098500        -0.016635825623
    9          2.629103725800         0.225491846818
   10          1.129274463400         0.430758412297
   11          0.444716599000         0.380050382021
   12          7.361329098500        -0.003321468907
   13          2.629103725800         0.045021159458
   14          1.129274463400         0.086004187919
   15          0.444716599000         0.075879944630
   16          7.361329098500         0.001090048690
   17          2.629103725800        -0.014775166426
   18          1.129274463400        -0.028225088051
 D 18
    1          7.361329098500         0.003943478903
    2          2.629103725800        -0.053452251843
    3          1.129274463400        -0.102110153704
    4          0.444716599000        -0.090089947905
    5          7.361329098500        -0.016926293180
    6          2.629103725800         0.229429016355
    7          1.129274463400         0.438279610614
    8          0.444716599000         0.386686199714
    9          7.361329098500        -0.000380663982
   10          2.629103725800         0.005159745379
   11          1.129274463400         0.009856692197
   12          0.444716599000         0.008696381842
   13          7.361329098500        -0.002296694627
   14          2.629103725800         0.031130761090
   15          1.129274463400         0.059469277536
   16          0.444716599000         0.052468671536
   17          7.361329098500         0.000518940614
   18          2.629103725800        -0.007034028852
 P 18
    1          4.246097000000        -0.069296087327
    2          3.392594000000         0.073303271280
    3          1.197589126400         0.053461240137
    4          0.526737505900         0.022916853483
    5          4.246097000000         0.524368968082
    6          3.392594000000        -0.554691645675
    7          1.197589126400        -0.404545428239
    8          0.526737505900        -0.173413641029
    9          4.246097000000         0.009334937395
   10          3.392594000000        -0.009874748700
   11          1.197589126400        -0.007201811084
   12          0.526737505900        -0.003087149662
   13          0.206070941000        -0.171502693903
   14          0.206070941000         1.297774435676
   15          0.206070941000         0.023103280033
   16          0.037000000000         0.076248693638
   17          0.037000000000        -0.576979889384
   18          0.037000000000        -0.010271529159
 D 18
    1          8.475640000000         0.000108548541
    2          7.165717000000        -0.000171602502
    3          3.182110000000        -0.000030746529
    4          1.397364419600         0.000665637266
    5          0.605329558700         0.000463771854
    6          0.102295142100        -0.018583681714
    7          0.037338972900         0.019483888232
    8          7.361329098500        -0.001733985988
    9          2.629103725800         0.023503474463
   10          1.129274463400         0.044898826658
   11          0.444716599000         0.039613425383
   12          7.361329098500        -0.001734795713
   13          2.629103725800         0.023514449968
   14          1.129274463400         0.044919793230
   15          0.444716599000         0.039631923812
   16          7.361329098500        -0.000260492431
   17          2.629103725800         0.003530868906
   18          1.129274463400         0.006745039812
 S 18
    1          8.475640000000        -2.080687128850
    2          7.165717000000         2.780952401855
    3          3.182110000000         0.221269510349
    4          1.397364419600        -3.650884058692
    5          0.605329558700         3.463811204235
    6          0.102295142100        -1.412268307607
    7          0.037338972900         0.624775113068
    8          7.361329098500        -0.000597997263
    9          2.629103725800         0.002894924000
   10          1.129274463400         0.002375373339
   11          0.444716599000         0.000825321418
   12          7.361329098500        -0.000190896704
   13          2.629103725800         0.000924137091
   14          1.129274463400         0.000758282638
   15          0.444716599000         0.000263464649
   16          7.361329098500         0.000019919415
   17          2.629103725800        -0.000096430527
   18          1.129274463400        -0.000079124185
 S 18
    1          8.475640000000        -3.743920169877
    2          7.165717000000         5.003954532331
    3          3.182110000000         0.398145098938
    4          1.397364419600        -1.621569321108
    5          0.605329558700         0.877735149411
    6          0.102295142100        -0.232110057695
    7          0.037338972900         0.102742542792
    8          7.361329098500         0.000007918976
    9          2.629103725800        -0.000038336019
   10          1.129274463400        -0.000031455871
   11          0.444716599000        -0.000010929315
   12          7.361329098500         0.000002503367
   13          2.629103725800        -0.000012118881
   14          1.129274463400        -0.000009943911
   15          0.444716599000        -0.000003455003
   16          7.361329098500        -0.000000270405
   17          2.629103725800         0.000001309042
   18          1.129274463400         0.000001074109
 end
  // -----------------------------------------------
  // The basis set
  // -----------------------------------------------
  BAS[ATNO] = new BFNGauss[NSH];
  // Basis function   1 L = s
  InitBFNGauss(BAS[ATNO][  0]);
  BAS[ATNO][  0].l  = 0;
  BAS[ATNO][  0].ng = 7;
  BAS[ATNO][  0].a[  0] =         8.475640000000;     BAS[ATNO][  0].d[  0] =        -1.245338587723;
  BAS[ATNO][  0].a[  1] =         7.165717000000;     BAS[ATNO][  0].d[  1] =         1.664463286494;
  BAS[ATNO][  0].a[  2] =         3.182110000000;     BAS[ATNO][  0].d[  2] =         0.132434836407;
  BAS[ATNO][  0].a[  3] =         1.397364419600;     BAS[ATNO][  0].d[  3] =        -0.890325850064;
  BAS[ATNO][  0].a[  4] =         0.605329558700;     BAS[ATNO][  0].d[  4] =        -0.463915967355;
  BAS[ATNO][  0].a[  5] =         0.102295142100;     BAS[ATNO][  0].d[  5] =        -0.012898366265;
  BAS[ATNO][  0].a[  6] =         0.037338972900;     BAS[ATNO][  0].d[  6] =        -0.000250243818;

FINAL SINGLE POINT ENERGY      -126.925602209301

DIPOLE MOMENT
-------------
                                X             Y             Z
Electronic contribution:     -0.00000      -0.00000      -0.00000
Nuclear contribution   :      0.00000       0.00000       0.00000
                        -----------------------------------------
Total Dipole Moment    :     -0.00000      -0.00000      -0.00000
                        -----------------------------------------
Magnitude (a.u.)       :      0.00000
Magnitude (Debye)      :      0.00000

Rotational constants in cm-1:     0.000000     0.000000     0.000000
Rotational constants in MHz :     0.000000     0.000000     0.000000

                             ****ORCA TERMINATED NORMALLY****
TOTAL RUN TIME: 0 days 0 hours 0 minutes 1 seconds 109 msec
