                         Program Version 4.2.0 -  RELEASE  -
|  1> # input to generate an atomic fitting density for Ag
|  2> # this file is use internally by ORCA
|  3> #
|  4> # atomic ground state (S=2): 1s2 2s2 2p6 3s2 3p6 4s2 3d10 4p6 5s2 4d9
|  5> #
|  6> ! RHF AllowRHF def2-SVP def2/J  NoMulliken NoLoewdin NoMayer NoPrintMOs
|  7>
|  8> %output print[p_atomdensfit] 2 end
|  9>
| 10> %scf
| 11>   guess hcore
| 12>   maxiter 1000
| 13>   maxdisk 500000
| 14>   SCFMode Conventional
| 15>   lshift 1.000000
| 16>   hftyp rohf
| 17>   rohf_case sahf
| 18>   rohf_numop   2
| 19>   rohf_norb[1] 5
| 20>   rohf_nel[1]  9
| 21> end
| 22>
| 23> %basis
| 24>   NewECP 47
| 25>     N_core 28
| 26>     lmax f
| 27>     s 4
| 28>       1      13.1300000000    255.1393645000  2
| 29>       2       6.5100000000     36.8661215000  2
| 30>       3      14.2200000000     33.6899201000  2
| 31>       4       7.1100000000      5.5311202000  2
| 32>     p 4
| 33>       1      11.7400000000    182.1818687000  2
| 34>       2       6.2000000000     30.3577515000  2
| 35>       3      14.2200000000     33.6899201000  2
| 36>       4       7.1100000000      5.5311202000  2
| 37>     d 4
| 38>       1      10.2100000000     73.7192609000  2
| 39>       2       4.3800000000     12.5021171000  2
| 40>       3      14.2200000000     33.6899201000  2
| 41>       4       7.1100000000      5.5311202000  2
| 42>     f 2
| 43>       1      14.2200000000    -33.6899201000  2
| 44>       2       7.1100000000     -5.5311202000  2
| 45>   end
| 46>   NewGTO 47
| 47>     s 3
| 48>      1       9.0884420000     -1.9171571304
| 49>      2       7.5407310000      2.6667953097
| 50>      3       2.7940050000      0.2198454524
| 51>     s 1
| 52>      1       1.4918135849      1.0000000000
| 53>     s 1
| 54>      1       0.6357915944      1.0000000000
| 55>     s 1
| 56>      1       0.1036841416      1.0000000000
| 57>     s 1
| 58>      1       0.0374600044      1.0000000000
| 59>     p 4
| 60>      1       4.4512400000     -1.0032363439
| 61>      2       3.6752630000      1.0603206322
| 62>      3       1.2610620905      0.6538067676
| 63>      4       0.5421247750      0.2587209520
| 64>     p 1
| 65>      1       0.2022161703      1.0000000000
| 66>     p 1
| 67>      1       0.0412000000      1.0000000000
| 68>     d 4
| 69>      1       7.7956672292     -0.0184822186
| 70>      2       2.8926510238      0.2542622701
| 71>      3       1.2474273203      0.4854644072
| 72>      4       0.4931381767      0.4236406400
| 73>     d 1
| 74>      1       0.1728503260      1.0000000000
| 75>   end
| 76>   NewAuxGTO 47
| 77>     S 1
| 78>      1 1310.72 1.0
| 79>     S 1
| 80>      1  655.36 1.0
| 81>     S 1
| 82>      1  327.68 1.0
| 83>     S 1
| 84>      1  163.84 1.0
| 85>     S 1
| 86>      1   81.82 1.0
| 87>     S 1
| 88>      1   40.96 1.0
| 89>     S 1
| 90>      1   20.48 1.0
| 91>     S 1
| 92>      1   10.24 1.0
| 93>     S 1
| 94>      1    5.12 1.0
| 95>     S 1
| 96>      1    2.56 1.0
| 97>     S 1
| 98>      1    1.28 1.0
| 99>     S 1
|100>      1    0.64 1.0
|101>     S 1
|102>      1    0.32 1.0
|103>     S 1
|104>      1    0.16 1.0
|105>     S 1
|106>      1    0.08 1.0
|107>     S 1
|108>      1    0.04 1.0
|109>     S 1
|110>      1    0.02 1.0
|111>     S 1
|112>      1    0.01 1.0
|113>   end
|114> end
|115>
|116> * xyz 0 2
|117> 47  0.0 0.0 0.0
|118> *
|119>
|120>
|121>                          ****END OF INPUT****

CARTESIAN COORDINATES (ANGSTROEM)
---------------------------------
  Ag     0.000000    0.000000    0.000000

 Total Charge           Charge          ....    0
 Multiplicity           Mult            ....    2
 Number of Electrons    NEL             ....   19
 Basis Dimension        Dim             ....   24

ORBITAL ENERGIES
----------------

  NO   OCC          E(Eh)            E(eV)
   0   2.0000      -4.481430      -121.9459
   1   2.0000      -2.916870       -79.3721
   2   2.0000      -2.914430       -79.3057
   3   2.0000      -2.914430       -79.3057
   4   2.0000      -0.632443       -17.2096
   5   1.8000      -0.637732       -17.3536
   6   1.8000      -0.635142       -17.2831
   7   1.8000      -0.635142       -17.2831
   8   1.8000      -0.627378       -17.0718
   9   1.8000      -0.272200        -7.4069
  10   0.0000       0.026358         0.7172
  11   0.0000       0.027475         0.7476
  12   0.0000       0.027475         0.7476
  13   0.0000       0.136374         3.7109
  14   0.0000       0.406224        11.0539

CleanUpVectors: The p-vectors have cracked symmetry
CleanUpVectors: The p-vectors have cracked symmetry
CleanUpVectors: The p-vectors have cracked symmetry
CleanUpVectors: The d-vectors have cracked symmetry at i=4
CleanUpVectors: The d-vectors have cracked symmetry at i=5
CleanUpVectors: The d-vectors have cracked symmetry at i=6
CleanUpVectors: The d-vectors have cracked symmetry at i=7
CleanUpVectors: The d-vectors have cracked symmetry at i=8
CleanUpVectors: The p-vectors have cracked symmetry
CleanUpVectors: The p-vectors have cracked symmetry
CleanUpVectors: The p-vectors have cracked symmetry
CleanUpVectors: The p-vectors have cracked symmetry
CleanUpVectors: The p-vectors have cracked symmetry
CleanUpVectors: The p-vectors have cracked symmetry
CleanUpVectors: The d-vectors have cracked symmetry at i=17
CleanUpVectors: The d-vectors have cracked symmetry at i=18
CleanUpVectors: The d-vectors have cracked symmetry at i=19
--------------------------
ATOM BASIS FOR ELEMENT Ag
--------------------------
 NewGTO Ag
 S 7
    1          9.088442000000        -1.144664170690
    2          7.540731000000         1.592245618877
    3          2.794005000000         0.131261652194
    4          1.491813584900        -0.942415518426
    5          0.635791594400        -0.438911519490
    6          0.103684141600        -0.012889788581
    7          0.037460004400        -0.001528174730
 P 6
    1          4.451240000000         0.998647022664
    2          3.675263000000        -1.055470177944
    3          1.261062090500        -0.650815917736
    4          0.542124775000        -0.257537428729
    5          0.202216170300        -0.008927966901
    6          0.041200000000        -0.001997433377
 D 5
    1          7.795667229200        -0.017465811254
    2          2.892651023800         0.240279422872
    3          1.247427320300         0.458766876977
    4          0.493138176700         0.400343033374
    5          0.172850326000         0.123286496987
 D 10
    1          7.795667229200        -0.000010012920
    2          2.892651023800         0.000137749038
    3          1.247427320300         0.000263005026
    4          0.493138176700         0.000229511403
    5          7.795667229200        -0.017471702626
    6          2.892651023800         0.240360471237
    7          1.247427320300         0.458921623083
    8          0.493138176700         0.400478072603
    9          0.172850326000         0.000070287962
   10          0.172850326000         0.122646574687
 P 6
    1          4.451240000000         0.580741211282
    2          3.675263000000        -0.613785467438
    3          1.261062090500        -0.378467682584
    4          0.542124775000        -0.149765227269
    5          0.202216170300         1.319164835167
    6          0.041200000000        -0.664981680170
 D 17
    1          9.088442000000        -0.000067805222
    2          7.540731000000         0.000113676608
    3          2.794005000000         0.000025292117
    4          1.491813584900        -0.000457474231
    5          0.635791594400        -0.000393724262
    6          0.103684141600         0.014767882328
    7          0.037460004400        -0.016726084225
    8          7.795667229200         0.004969721528
    9          2.892651023800        -0.068369101397
   10          1.247427320300        -0.130537516509
   11          0.493138176700        -0.113913597408
   12          7.795667229200        -0.008607810186
   13          2.892651023800         0.118418757287
   14          1.247427320300         0.226097610885
   15          0.493138176700         0.197304138382
   16          0.172850326000         0.540527804900
   17          0.172850326000        -0.936221620981
 S 17
    1          9.088442000000        -1.857292113434
    2          7.540731000000         2.583522142401
    3          2.794005000000         0.212980573393
    4          1.491813584900        -3.583149809925
    5          0.635791594400         3.355720076937
    6          0.103684141600        -1.372211443314
    7          0.037460004400         0.613213827271
    8          7.795667229200        -0.000168002657
    9          2.892651023800         0.000857603843
   10          1.247427320300         0.000706124697
   11          0.493138176700         0.000243598717
   12          7.795667229200         0.000290989138
   13          2.892651023800        -0.001485413429
   14          1.247427320300        -0.001223043853
   15          0.493138176700        -0.000421925354
   16          0.172850326000        -0.000048154720
   17          0.172850326000         0.000083406421
 S 17
    1          9.088442000000        -3.397078439026
    2          7.540731000000         4.725388808370
    3          2.794005000000         0.389551922700
    4          1.491813584900        -1.667626503248
    5          0.635791594400         0.858700574152
    6          0.103684141600        -0.223241118142
    7          0.037460004400         0.099402983969
    8          7.795667229200         0.000002710049
    9          2.892651023800        -0.000013833997
   10          1.247427320300        -0.000011390488
   11          0.493138176700        -0.000003929488
   12          7.795667229200        -0.000004693942
   13          2.892651023800         0.000023961185
   14          1.247427320300         0.000019728905
   15          0.493138176700         0.000006806072
   16          0.172850326000         0.000001784079
   17          0.172850326000        -0.000003090116
 end
  // -----------------------------------------------
  // The basis set
  // -----------------------------------------------
  BAS[ATNO] = new BFNGauss[NSH];
  // Basis function   1 L = s
  InitBFNGauss(BAS[ATNO][  0]);
  BAS[ATNO][  0].l  = 0;
  BAS[ATNO][  0].ng = 7;
  BAS[ATNO][  0].a[  0] =         9.088442000000;     BAS[ATNO][  0].d[  0] =        -1.144664170690;
  BAS[ATNO][  0].a[  1] =         7.540731000000;     BAS[ATNO][  0].d[  1] =         1.592245618877;
  BAS[ATNO][  0].a[  2] =         2.794005000000;     BAS[ATNO][  0].d[  2] =         0.131261652194;
  BAS[ATNO][  0].a[  3] =         1.491813584900;     BAS[ATNO][  0].d[  3] =        -0.942415518426;
  BAS[ATNO][  0].a[  4] =         0.635791594400;     BAS[ATNO][  0].d[  4] =        -0.438911519490;
  BAS[ATNO][  0].a[  5] =         0.103684141600;     BAS[ATNO][  0].d[  5] =        -0.012889788581;
  BAS[ATNO][  0].a[  6] =         0.037460004400;     BAS[ATNO][  0].d[  6] =        -0.001528174730;

FINAL SINGLE POINT ENERGY      -145.957017991915

DIPOLE MOMENT
-------------
                                X             Y             Z
Electronic contribution:     -0.00000       0.00000      -0.00000
Nuclear contribution   :      0.00000       0.00000       0.00000
                        -----------------------------------------
Total Dipole Moment    :     -0.00000       0.00000      -0.00000
                        -----------------------------------------
Magnitude (a.u.)       :      0.00000
Magnitude (Debye)      :      0.00000

Rotational constants in cm-1:     0.000000     0.000000     0.000000
Rotational constants in MHz :     0.000000     0.000000     0.000000

                             ****ORCA TERMINATED NORMALLY****
TOTAL RUN TIME: 0 days 0 hours 0 minutes 1 seconds 244 msec
