                         Program Version 4.2.0 -  RELEASE  -
|  1> #
|  2> # 47_Ag CCSD(T)/Def2-SVP
|  3> #
|  4> ! CCSD(T) Def2-SVP tightscf
|  5>
|  6> *xyz 0 2
|  7>  Ag 0.0 0.0 0.0
|  8> *
|  9>
| 10> %maxcore 5000
| 11>
| 12> %pal
| 13> nprocs 24
| 14> end
| 15>
| 16>
| 17>                          ****END OF INPUT****

CARTESIAN COORDINATES (ANGSTROEM)
---------------------------------
  Ag     0.000000    0.000000    0.000000

 Total Charge           Charge          ....    0
 Multiplicity           Mult            ....    2
 Number of Electrons    NEL             ....   19
 Basis Dimension        Dim             ....   31

ORBITAL ENERGIES
----------------
                 SPIN UP ORBITALS
  NO   OCC          E(Eh)            E(eV)
   0   1.0000      -4.332646      -117.8973
   1   1.0000      -2.779565       -75.6358
   2   1.0000      -2.779565       -75.6358
   3   1.0000      -2.779565       -75.6358
   4   1.0000      -0.512021       -13.9328
   5   1.0000      -0.512021       -13.9328
   6   1.0000      -0.512021       -13.9328
   7   1.0000      -0.512021       -13.9328
   8   1.0000      -0.512021       -13.9328
   9   1.0000      -0.237530        -6.4635
  10   0.0000       0.047956         1.3049
  11   0.0000       0.047956         1.3049
  12   0.0000       0.047956         1.3049
  13   0.0000       0.177625         4.8334
  14   0.0000       0.483428        13.1548

                 SPIN DOWN ORBITALS
  NO   OCC          E(Eh)            E(eV)
   0   1.0000      -4.331106      -117.8554
   1   1.0000      -2.782632       -75.7193
   2   1.0000      -2.782632       -75.7193
   3   1.0000      -2.782632       -75.7193
   4   1.0000      -0.509051       -13.8520
   5   1.0000      -0.509051       -13.8520
   6   1.0000      -0.509051       -13.8520
   7   1.0000      -0.509051       -13.8520
   8   1.0000      -0.509051       -13.8520
   9   0.0000       0.013254         0.3606
  10   0.0000       0.083553         2.2736
  11   0.0000       0.083553         2.2736
  12   0.0000       0.083553         2.2736
  13   0.0000       0.221830         6.0363

E(0)                                       ...   -146.084101356
E(0)                                       ...   -146.084101356
E(CORR)                                    ...     -0.305497234
E(TOT)                                     ...   -146.389598591
E(CCSD(T))                                 ...   -146.397909698

MULLIKEN ATOMIC CHARGES AND SPIN DENSITIES
------------------------------------------
   0 Ag:   -0.000000    1.000000
Sum of atomic charges       :   -0.0000000

LOEWDIN ATOMIC CHARGES AND SPIN DENSITIES
-----------------------------------------
   0 Ag:   -0.000000    1.000000

FINAL SINGLE POINT ENERGY      -146.397909698290

DIPOLE MOMENT
-------------
                                X             Y             Z
Electronic contribution:     -0.00000      -0.00000       0.00000
Nuclear contribution   :      0.00000       0.00000       0.00000
                        -----------------------------------------
Total Dipole Moment    :     -0.00000      -0.00000       0.00000
                        -----------------------------------------
Magnitude (a.u.)       :      0.00000
Magnitude (Debye)      :      0.00000

Rotational constants in cm-1:     0.000000     0.000000     0.000000
Rotational constants in MHz :     0.000000     0.000000     0.000000

                             ****ORCA TERMINATED NORMALLY****
TOTAL RUN TIME: 0 days 0 hours 0 minutes 15 seconds 632 msec
