                         Program Version 4.2.0 -  RELEASE  -
|  1> # input to generate an atomic fitting density for Cd
|  2> # this file is use internally by ORCA
|  3> #
|  4> # atomic ground state (S=1): 1s2 2s2 2p6 3s2 3p6 4s2 3d10 4p6 5s2 4d10
|  5> #
|  6> ! RHF AllowRHF def2-SVP def2/J  NoMulliken NoLoewdin NoMayer NoPrintMOs
|  7>
|  8> %output print[p_atomdensfit] 2 end
|  9>
| 10> %scf
| 11>   guess hcore
| 12>   maxiter 1000
| 13>   maxdisk 500000
| 14>   SCFMode Conventional
| 15>   lshift 1.000000
| 16>   hftyp rohf
| 17>   rohf_case sahf
| 18>   rohf_numop   2
| 19>   rohf_norb[1] 5
| 20>   rohf_nel[1]  10
| 21> end
| 22>
| 23> %basis
| 24>   NewECP 48
| 25>     N_core 28
| 26>     lmax f
| 27>     s 4
| 28>       1      13.8358689000    270.0094832000  2
| 29>       2       6.8572704000     38.7673080000  2
| 30>       3      15.1847957000     35.4766256000  2
| 31>       4       7.5923978000      5.6176768000  2
| 32>     p 4
| 33>       1      12.4049710000    193.8296294000  2
| 34>       2       6.5677995000     31.8965252000  2
| 35>       3      15.1847957000     35.4766256000  2
| 36>       4       7.5923978000      5.6176768000  2
| 37>     d 4
| 38>       1      10.8969253000     79.1936470000  2
| 39>       2       4.6411649000     13.2308267000  2
| 40>       3      15.1847957000     35.4766256000  2
| 41>       4       7.5923978000      5.6176768000  2
| 42>     f 2
| 43>       1      15.1847957000    -35.4766256000  2
| 44>       2       7.5923978000     -5.6176768000  2
| 45>   end
| 46>   NewGTO 48
| 47>     s 3
| 48>      1       9.7270110000     -1.8420145808
| 49>      2       7.8375230000      2.6823974471
| 50>      3       5.0891940000      0.1104220841
| 51>     s 1
| 52>      1       1.4981738327      1.0000000000
| 53>     s 1
| 54>      1       0.6728138313      1.0000000000
| 55>     s 1
| 56>      1       0.1329742487      1.0000000000
| 57>     s 1
| 58>      1       0.0469150905      1.0000000000
| 59>     p 4
| 60>      1       4.7427160000     -1.0494859933
| 61>      2       3.9366550000      1.1091332913
| 62>      3       1.3569243142      0.6588732183
| 63>      4       0.5879156954      0.2482857992
| 64>     p 1
| 65>      1       0.2137123962      1.0000000000
| 66>     p 1
| 67>      1       0.0516000000      1.0000000000
| 68>     d 4
| 69>      1       7.8631040859     -0.0230680593
| 70>      2       3.2935059133      0.2438478889
| 71>      3       1.4503676025      0.4887922303
| 72>      4       0.5937331677      0.4232295277
| 73>     d 1
| 74>      1       0.2176014152      1.0000000000
| 75>   end
| 76>   NewAuxGTO 48
| 77>     S 1
| 78>      1 1310.72 1.0
| 79>     S 1
| 80>      1  655.36 1.0
| 81>     S 1
| 82>      1  327.68 1.0
| 83>     S 1
| 84>      1  163.84 1.0
| 85>     S 1
| 86>      1   81.82 1.0
| 87>     S 1
| 88>      1   40.96 1.0
| 89>     S 1
| 90>      1   20.48 1.0
| 91>     S 1
| 92>      1   10.24 1.0
| 93>     S 1
| 94>      1    5.12 1.0
| 95>     S 1
| 96>      1    2.56 1.0
| 97>     S 1
| 98>      1    1.28 1.0
| 99>     S 1
|100>      1    0.64 1.0
|101>     S 1
|102>      1    0.32 1.0
|103>     S 1
|104>      1    0.16 1.0
|105>     S 1
|106>      1    0.08 1.0
|107>     S 1
|108>      1    0.04 1.0
|109>     S 1
|110>      1    0.02 1.0
|111>     S 1
|112>      1    0.01 1.0
|113>   end
|114> end
|115>
|116> * xyz 0 1
|117> 48  0.0 0.0 0.0
|118> *
|119>
|120>
|121>                          ****END OF INPUT****

CARTESIAN COORDINATES (ANGSTROEM)
---------------------------------
  Cd     0.000000    0.000000    0.000000

 Total Charge           Charge          ....    0
 Multiplicity           Mult            ....    1
 Number of Electrons    NEL             ....   20
 Basis Dimension        Dim             ....   24

ORBITAL ENERGIES
----------------

  NO   OCC          E(Eh)            E(eV)
   0   2.0000      -4.605725      -125.3281
   1   2.0000      -3.165440       -86.1360
   2   2.0000      -3.165440       -86.1360
   3   2.0000      -3.165440       -86.1360
   4   2.0000      -0.720741       -19.6124
   5   2.0000      -0.720740       -19.6123
   6   2.0000      -0.720740       -19.6123
   7   2.0000      -0.720739       -19.6123
   8   2.0000      -0.720739       -19.6123
   9   2.0000      -0.480107       -13.0644
  10   0.0000       0.056491         1.5372
  11   0.0000       0.056491         1.5372
  12   0.0000       0.056491         1.5372
  13   0.0000       0.220334         5.9956
  14   0.0000       0.494359        13.4522

--------------------------
ATOM BASIS FOR ELEMENT Cd
--------------------------
 NewGTO Cd
 S 7
    1          9.727011000000        -1.014725944482
    2          7.837523000000         1.477674667376
    3          5.089194000000         0.060829134985
    4          1.498173832700        -0.963194008817
    5          0.672813831300        -0.440626818028
    6          0.132974248700         0.122211308391
    7          0.046915090500         0.116653526321
 S 7
    1          9.727011000000        -0.098134927352
    2          7.837523000000         0.142907054779
    3          5.089194000000         0.005882832478
    4          1.498173832700        -0.184231213006
    5          0.672813831300        -0.138255257983
    6          0.132974248700         0.611427527774
    7          0.046915090500         0.533599250251
 S 7
    1          9.727011000000        -0.245926601805
    2          7.837523000000         0.358125769324
    3          5.089194000000         0.014742406597
    4          1.498173832700        -0.214249406918
    5          0.672813831300        -0.531694238800
    6          0.132974248700         2.163247069603
    7          0.046915090500        -1.840698730256
 S 7
    1          9.727011000000        -1.512621142547
    2          7.837523000000         2.202724741427
    3          5.089194000000         0.090676143802
    4          1.498173832700        -3.675137684052
    5          0.672813831300         3.799068068242
    6          0.132974248700        -1.619436903194
    7          0.046915090500         0.668725092453
 S 7
    1          9.727011000000        -2.911148347671
    2          7.837523000000         4.239302434040
    3          5.089194000000         0.174512770433
    4          1.498173832700        -1.477231245655
    5          0.672813831300         0.912352476463
    6          0.132974248700        -0.257713802524
    7          0.046915090500         0.105136803068
 P 6
    1          4.742716000000         1.041199828216
    2          3.936655000000        -1.100376183906
    3          1.356924314200        -0.653671117185
    4          0.587915695400        -0.246325470874
    5          0.213712396200        -0.016466262899
    6          0.051600000000        -0.000036228029
 P 6
    1          4.742716000000         0.177908098522
    2          3.936655000000        -0.188019464883
    3          1.356924314200        -0.111691706400
    4          0.587915695400        -0.042089227210
    5          0.213712396200         0.101254164368
    6          0.051600000000         0.952779156336
 P 6
    1          4.742716000000         0.601107797860
    2          3.936655000000        -0.635271622987
    3          1.356924314200        -0.377378861509
    4          0.587915695400        -0.142209168059
    5          0.213712396200         1.381436420573
    6          0.051600000000        -0.776631982046
 D 5
    1          7.863104085900        -0.021376366989
    2          3.293505913300         0.225965344330
    3          1.450367602500         0.452946732997
    4          0.593733167700         0.392192060340
    5          0.217601415200         0.152327373970
 D 5
    1          7.863104085900        -0.013712616119
    2          3.293505913300         0.144953350794
    3          1.450367602500         0.290558478663
    4          0.593733167700         0.251585275033
    5          0.217601415200        -1.090351145789
 end
  // -----------------------------------------------
  // The basis set
  // -----------------------------------------------
  BAS[ATNO] = new BFNGauss[NSH];
  // Basis function   1 L = s
  InitBFNGauss(BAS[ATNO][  0]);
  BAS[ATNO][  0].l  = 0;
  BAS[ATNO][  0].ng = 7;
  BAS[ATNO][  0].a[  0] =         9.727011000000;     BAS[ATNO][  0].d[  0] =        -1.014725944482;
  BAS[ATNO][  0].a[  1] =         7.837523000000;     BAS[ATNO][  0].d[  1] =         1.477674667376;
  BAS[ATNO][  0].a[  2] =         5.089194000000;     BAS[ATNO][  0].d[  2] =         0.060829134985;
  BAS[ATNO][  0].a[  3] =         1.498173832700;     BAS[ATNO][  0].d[  3] =        -0.963194008817;
  BAS[ATNO][  0].a[  4] =         0.672813831300;     BAS[ATNO][  0].d[  4] =        -0.440626818028;
  BAS[ATNO][  0].a[  5] =         0.132974248700;     BAS[ATNO][  0].d[  5] =         0.122211308391;
  BAS[ATNO][  0].a[  6] =         0.046915090500;     BAS[ATNO][  0].d[  6] =         0.116653526321;

FINAL SINGLE POINT ENERGY      -166.846608850587

DIPOLE MOMENT
-------------
                                X             Y             Z
Electronic contribution:      0.00000       0.00000      -0.00000
Nuclear contribution   :      0.00000       0.00000       0.00000
                        -----------------------------------------
Total Dipole Moment    :      0.00000       0.00000      -0.00000
                        -----------------------------------------
Magnitude (a.u.)       :      0.00000
Magnitude (Debye)      :      0.00000

Rotational constants in cm-1:     0.000000     0.000000     0.000000
Rotational constants in MHz :     0.000000     0.000000     0.000000

                             ****ORCA TERMINATED NORMALLY****
TOTAL RUN TIME: 0 days 0 hours 0 minutes 1 seconds 362 msec
