                         Program Version 4.2.0 -  RELEASE  -
|  1> #
|  2> # 48_Cd CCSD(T)/Def2-SVP
|  3> #
|  4> ! CCSD(T) Def2-SVP tightscf
|  5>
|  6> *xyz 0 1
|  7>  Cd 0.0 0.0 0.0
|  8> *
|  9>
| 10> %maxcore 5000
| 11>
| 12> %pal
| 13> nprocs 24
| 14> end
| 15>
| 16>
| 17>                          ****END OF INPUT****

CARTESIAN COORDINATES (ANGSTROEM)
---------------------------------
  Cd     0.000000    0.000000    0.000000

 Total Charge           Charge          ....    0
 Multiplicity           Mult            ....    1
 Number of Electrons    NEL             ....   20
 Basis Dimension        Dim             ....   31

ORBITAL ENERGIES
----------------

  NO   OCC          E(Eh)            E(eV)
   0   2.0000      -4.805025      -130.7514
   1   2.0000      -3.165415       -86.1353
   2   2.0000      -3.165415       -86.1353
   3   2.0000      -3.165415       -86.1353
   4   2.0000      -0.720716       -19.6117
   5   2.0000      -0.720716       -19.6117
   6   2.0000      -0.720716       -19.6117
   7   2.0000      -0.720716       -19.6117
   8   2.0000      -0.720716       -19.6117
   9   2.0000      -0.280773        -7.6402
  10   0.0000       0.056499         1.5374
  11   0.0000       0.056499         1.5374
  12   0.0000       0.056499         1.5374
  13   0.0000       0.220338         5.9957
  14   0.0000       0.494370        13.4525

E(0)                                       ...   -166.846608855
E(0)                                       ...   -166.846608855
E(CORR)                                    ...     -0.351862730
E(TOT)                                     ...   -167.198471585
E(CCSD(T))                                 ...   -167.206892315

MULLIKEN ATOMIC CHARGES
-----------------------
   0 Cd:   -0.000000
Sum of atomic charges:   -0.0000000

LOEWDIN ATOMIC CHARGES
----------------------
   0 Cd:   -0.000000

FINAL SINGLE POINT ENERGY      -167.206892314714

DIPOLE MOMENT
-------------
                                X             Y             Z
Electronic contribution:     -0.00000      -0.00000       0.00000
Nuclear contribution   :      0.00000       0.00000       0.00000
                        -----------------------------------------
Total Dipole Moment    :     -0.00000      -0.00000       0.00000
                        -----------------------------------------
Magnitude (a.u.)       :      0.00000
Magnitude (Debye)      :      0.00000

Rotational constants in cm-1:     0.000000     0.000000     0.000000
Rotational constants in MHz :     0.000000     0.000000     0.000000

                             ****ORCA TERMINATED NORMALLY****
TOTAL RUN TIME: 0 days 0 hours 0 minutes 7 seconds 684 msec
