                         Program Version 4.2.0 -  RELEASE  -
|  1> # input to generate an atomic fitting density for In
|  2> # this file is use internally by ORCA
|  3> #
|  4> # atomic ground state (S=2): 1s2 2s2 2p6 3s2 3p6 4s2 3d10 4p6 5s2 4d10 5p1
|  5> #
|  6> ! RHF AllowRHF def2-SVP def2/J  NoMulliken NoLoewdin NoMayer NoPrintMOs
|  7>
|  8> %output print[p_atomdensfit] 2 end
|  9>
| 10> %scf
| 11>   guess hcore
| 12>   maxiter 1000
| 13>   maxdisk 500000
| 14>   SCFMode Conventional
| 15>   lshift 1.000000
| 16>   hftyp rohf
| 17>   rohf_case sahf
| 18>   rohf_numop   2
| 19>   rohf_norb[1] 3
| 20>   rohf_nel[1]  1
| 21> end
| 22>
| 23> %basis
| 24>   NewECP 49
| 25>     N_core 28
| 26>     lmax f
| 27>     s 4
| 28>       1      15.3928220000    281.1223500000  2
| 29>       2       8.0558640000     61.9014700000  2
| 30>       3      12.5390560000     13.7280780000  2
| 31>       4      12.5525610000     18.2068660000  2
| 32>     p 6
| 33>       1      13.9286720000     67.4621540000  2
| 34>       2      13.3472340000    134.9492500000  2
| 35>       3       7.6141320000     14.7461400000  2
| 36>       4       7.3183650000     29.6392620000  2
| 37>       5      12.5390560000     13.7280780000  2
| 38>       6      12.5525610000     18.2068660000  2
| 39>     d 6
| 40>       1      14.0347150000     35.4932540000  2
| 41>       2      14.5116160000     53.1787730000  2
| 42>       3       5.5505500000      9.1772810000  2
| 43>       4       5.0594150000     12.3924100000  2
| 44>       5      12.5390560000     13.7280780000  2
| 45>       6      12.5525610000     18.2068660000  2
| 46>     f 2
| 47>       1      12.5390560000    -13.7280780000  2
| 48>       2      12.5525610000    -18.2068660000  2
| 49>   end
| 50>   NewGTO 49
| 51>     s 6
| 52>      1     283.5229744500      0.0005542604
| 53>      2      23.3242821010     -0.0718291233
| 54>      3      16.8680268440      0.2220516375
| 55>      4       6.7866498137     -0.5587310794
| 56>      5       1.6782596016      0.7798105367
| 57>      6       0.7839687044      0.4944848655
| 58>     s 2
| 59>      1       1.8276654775     -0.3731202014
| 60>      2       0.8375349253     -0.6522103665
| 61>     s 1
| 62>      1       0.1664306897      1.0000000000
| 63>     s 1
| 64>      1       0.0611437428      1.0000000000
| 65>     p 4
| 66>      1      14.6991918260      0.1274042732
| 67>      2       8.8709038051     -0.4479895767
| 68>      3       1.1342905889      0.8447147073
| 69>      4       0.5266765243      0.2432077016
| 70>     p 1
| 71>      1       2.3284433667      1.0000000000
| 72>     p 1
| 73>      1       0.1685914493      1.0000000000
| 74>     p 1
| 75>      1       0.0500703811      1.0000000000
| 76>   end
| 77>   NewAuxGTO 49
| 78>     S 1
| 79>      1 1310.72 1.0
| 80>     S 1
| 81>      1  655.36 1.0
| 82>     S 1
| 83>      1  327.68 1.0
| 84>     S 1
| 85>      1  163.84 1.0
| 86>     S 1
| 87>      1   81.82 1.0
| 88>     S 1
| 89>      1   40.96 1.0
| 90>     S 1
| 91>      1   20.48 1.0
| 92>     S 1
| 93>      1   10.24 1.0
| 94>     S 1
| 95>      1    5.12 1.0
| 96>     S 1
| 97>      1    2.56 1.0
| 98>     S 1
| 99>      1    1.28 1.0
|100>     S 1
|101>      1    0.64 1.0
|102>     S 1
|103>      1    0.32 1.0
|104>     S 1
|105>      1    0.16 1.0
|106>     S 1
|107>      1    0.08 1.0
|108>     S 1
|109>      1    0.04 1.0
|110>     S 1
|111>      1    0.02 1.0
|112>     S 1
|113>      1    0.01 1.0
|114>   end
|115> end
|116>
|117> * xyz 0 2
|118> 49  0.0 0.0 0.0
|119> *
|120>
|121>
|122>                          ****END OF INPUT****

CARTESIAN COORDINATES (ANGSTROEM)
---------------------------------
  In     0.000000    0.000000    0.000000

 Total Charge           Charge          ....    0
 Multiplicity           Mult            ....    2
 Number of Electrons    NEL             ....   21
 Basis Dimension        Dim             ....   16

ORBITAL ENERGIES
----------------

  NO   OCC          E(Eh)            E(eV)
   0   2.0000      -9.908593      -269.6265
   1   2.0000      -7.878944      -214.3970
   2   2.0000      -7.878750      -214.3917
   3   2.0000      -7.862111      -213.9389
   4   2.0000      -2.199954       -59.8638
   5   2.0000      -1.411768       -38.4162
   6   2.0000      -1.411657       -38.4131
   7   2.0000      -1.390268       -37.8311
   8   2.0000      -0.344068        -9.3626
   9   2.0000      -0.159413        -4.3378
  10   0.3333      -0.205939        -5.6039
  11   0.3333      -0.205938        -5.6039
  12   0.3333      11.420978       310.7806
  13   0.0000      11.418266       310.7068
  14   0.0000      11.418481       310.7127
  15   0.0000      55.511349      1510.5406
CleanUpVectors: The p-vectors have cracked symmetry
CleanUpVectors: The p-vectors have cracked symmetry
CleanUpVectors: The p-vectors have cracked symmetry
CleanUpVectors: The p-vectors have cracked symmetry
CleanUpVectors: The p-vectors have cracked symmetry
CleanUpVectors: The p-vectors have cracked symmetry
CleanUpVectors: The p-vectors have cracked symmetry
CleanUpVectors: The p-vectors have cracked symmetry
CleanUpVectors: The p-vectors have cracked symmetry
CleanUpVectors: The p-vectors have cracked symmetry
CleanUpVectors: The p-vectors have cracked symmetry
--------------------------
ATOM BASIS FOR ELEMENT In
--------------------------
 NewGTO In
 S 10
    1        283.522974450000        -0.000741112644
    2         23.324282101000         0.096044154472
    3         16.868026844000        -0.296909676648
    4          6.786649813700         0.747090478527
    5          1.678259601600        -1.042700233624
    6          0.783968704400        -0.661185583568
    7          1.827665477500         0.110293090524
    8          0.837534925300         0.192791215065
    9          0.166430689700         0.129727511333
   10          0.061143742800        -0.056433129298
 P 17
    1         14.699191826000         0.009565313286
    2          8.870903805100        -0.033634355759
    3          1.134290588900         0.063419857197
    4          0.526676524300         0.018259653314
    5         14.699191826000        -0.061189197579
    6          8.870903805100         0.215158581681
    7          1.134290588900        -0.405696087142
    8          0.526676524300        -0.116806789380
    9         14.699191826000        -0.034664155921
   10          8.870903805100         0.121889008490
   11          1.134290588900        -0.229829985975
   12          0.526676524300        -0.066171953873
   13          2.328443366700         0.077882326792
   14          2.328443366700        -0.498212336540
   15          2.328443366700        -0.282241160190
   16          0.168591449300        -0.012041352873
   17          0.168591449300         0.077028393952
 S 10
    1        283.522974450000        -0.000307180632
    2         23.324282101000         0.039808933682
    3         16.868026844000        -0.123064830879
    4          6.786649813700         0.309658359504
    5          1.678259601600        -0.432184391420
    6          0.783968704400        -0.274052004436
    7          1.827665477500        -0.079065424279
    8          0.837534925300        -0.138205567946
    9          0.166430689700         1.661059285480
   10          0.061143742800        -0.471791774773
 S 10
    1        283.522974450000        -0.000106299995
    2         23.324282101000         0.013775899256
    3         16.868026844000        -0.042586639615
    4          6.786649813700         0.107157413418
    5          1.678259601600        -0.149557601412
    6          0.783968704400        -0.094835818366
    7          1.827665477500        -0.043332749747
    8          0.837534925300        -0.075745211564
    9          0.166430689700         1.579821543486
   10          0.061143742800        -1.904619188043
 P 17
    1         14.699191826000         0.001859555855
    2          8.870903805100        -0.006538726053
    3          1.134290588900         0.012329211105
    4          0.526676524300         0.003549789141
    5         14.699191826000        -0.011895557127
    6          8.870903805100         0.041828154332
    7          1.134290588900        -0.078869819705
    8          0.526676524300        -0.022707959753
    9         14.699191826000        -0.006738925551
   10          8.870903805100         0.023695974470
   11          1.134290588900        -0.044680365748
   12          0.526676524300        -0.012864235660
   13          2.328443366700         0.034521389692
   14          2.328443366700        -0.220832927400
   15          2.328443366700        -0.125103569431
   16          0.168591449300        -0.161883780058
   17          0.168591449300         1.035568653754
 P 17
    1         14.699191826000         0.003360777193
    2          8.870903805100        -0.011817446263
    3          1.134290588900         0.022282595802
    4          0.526676524300         0.006415537534
    5         14.699191826000         0.000144879763
    6          8.870903805100        -0.000509438356
    7          1.134290588900         0.000960580546
    8          0.526676524300         0.000276567443
    9         14.699191826000         0.000671639326
   10          8.870903805100        -0.002361674454
   11          1.134290588900         0.004453097235
   12          0.526676524300         0.001282122276
   13          2.328443366700         0.075584940632
   14          2.328443366700         0.003554626720
   15          2.328443366700         0.014582466146
   16          0.168591449300        -0.660688164486
   17          0.168591449300        -0.030637756116
 P 17
    1         14.699191826000        -0.173426551204
    2          8.870903805100         0.609816965403
    3          1.134290588900        -1.149851215807
    4          0.526676524300        -0.331061681490
    5         14.699191826000        -0.030609830829
    6          8.870903805100         0.107632851016
    7          1.134290588900        -0.202949034911
    8          0.526676524300        -0.058432471811
    9         14.699191826000         0.006176746164
   10          8.870903805100        -0.021719192220
   11          1.134290588900         0.040953008850
   12          0.526676524300         0.011791066344
   13          2.328443366700         1.131258571635
   14          2.328443366700         0.199706269753
   15          2.328443366700        -0.040359377443
   16          0.168591449300         0.650025106643
   17          0.168591449300         0.114643341312
 S 10
    1        283.522974450000        -0.001943548298
    2         23.324282101000         0.251873253739
    3         16.868026844000        -0.778637770665
    4          6.786649813700         1.959225011639
    5          1.678259601600        -2.734453772435
    6          0.783968704400        -1.733941697686
    7          1.827665477500         1.385280056123
    8          0.837534925300         2.421455632043
    9          0.166430689700         0.036483662514
   10          0.061143742800        -0.025864576771
 end
  // -----------------------------------------------
  // The basis set
  // -----------------------------------------------
  BAS[ATNO] = new BFNGauss[NSH];
  // Basis function   1 L = s
  InitBFNGauss(BAS[ATNO][  0]);
  BAS[ATNO][  0].l  = 0;
  BAS[ATNO][  0].ng = 10;
  BAS[ATNO][  0].a[  0] =       283.522974450000;     BAS[ATNO][  0].d[  0] =         0.000741112644;
  BAS[ATNO][  0].a[  1] =        23.324282101000;     BAS[ATNO][  0].d[  1] =        -0.096044154472;
  BAS[ATNO][  0].a[  2] =        16.868026844000;     BAS[ATNO][  0].d[  2] =         0.296909676648;
  BAS[ATNO][  0].a[  3] =         6.786649813700;     BAS[ATNO][  0].d[  3] =        -0.747090478527;
  BAS[ATNO][  0].a[  4] =         1.678259601600;     BAS[ATNO][  0].d[  4] =         1.042700233624;
  BAS[ATNO][  0].a[  5] =         0.783968704400;     BAS[ATNO][  0].d[  5] =         0.661185583568;
  BAS[ATNO][  0].a[  6] =         1.827665477500;     BAS[ATNO][  0].d[  6] =        -0.110293090524;
  BAS[ATNO][  0].a[  7] =         0.837534925300;     BAS[ATNO][  0].d[  7] =        -0.192791215065;
  BAS[ATNO][  0].a[  8] =         0.166430689700;     BAS[ATNO][  0].d[  8] =        -0.129727511333;
  BAS[ATNO][  0].a[  9] =         0.061143742800;     BAS[ATNO][  0].d[  9] =         0.056433129298;

FINAL SINGLE POINT ENERGY      -162.856729530041

DIPOLE MOMENT
-------------
                                X             Y             Z
Electronic contribution:      0.00000       0.00000       0.00000
Nuclear contribution   :      0.00000       0.00000       0.00000
                        -----------------------------------------
Total Dipole Moment    :      0.00000       0.00000       0.00000
                        -----------------------------------------
Magnitude (a.u.)       :      0.00000
Magnitude (Debye)      :      0.00000

Rotational constants in cm-1:     0.000000     0.000000     0.000000
Rotational constants in MHz :     0.000000     0.000000     0.000000

                             ****ORCA TERMINATED NORMALLY****
TOTAL RUN TIME: 0 days 0 hours 0 minutes 1 seconds 48 msec
