                         Program Version 4.2.0 -  RELEASE  -
|  1> #
|  2> # 49_In CCSD(T)/Def2-SVP
|  3> #
|  4> ! CCSD(T) Def2-SVP tightscf
|  5>
|  6> *xyz 0 2
|  7>  In 0.0 0.0 0.0
|  8> *
|  9>
| 10> %maxcore 5000
| 11>
| 12> %pal
| 13> nprocs 24
| 14> end
| 15>
| 16>
| 17>                          ****END OF INPUT****

CARTESIAN COORDINATES (ANGSTROEM)
---------------------------------
  In     0.000000    0.000000    0.000000

 Total Charge           Charge          ....    0
 Multiplicity           Mult            ....    2
 Number of Electrons    NEL             ....   21
 Basis Dimension        Dim             ....   26

ORBITAL ENERGIES
----------------
                 SPIN UP ORBITALS
  NO   OCC          E(Eh)            E(eV)
   0   1.0000      -5.373557      -146.2219
   1   1.0000      -3.627762       -98.7164
   2   1.0000      -3.627762       -98.7164
   3   1.0000      -3.623328       -98.5958
   4   1.0000      -1.015146       -27.6235
   5   1.0000      -1.015146       -27.6235
   6   1.0000      -1.007713       -27.4213
   7   1.0000      -1.007713       -27.4213
   8   1.0000      -1.005365       -27.3574
   9   1.0000      -0.423301       -11.5186
  10   1.0000      -0.199650        -5.4328
  11   0.0000       0.018046         0.4911
  12   0.0000       0.018046         0.4911
  13   0.0000       0.260649         7.0926
  14   0.0000       0.284880         7.7520
  15   0.0000       0.306475         8.3396

                 SPIN DOWN ORBITALS
  NO   OCC          E(Eh)            E(eV)
   0   1.0000      -5.372407      -146.1906
   1   1.0000      -3.629095       -98.7527
   2   1.0000      -3.629095       -98.7527
   3   1.0000      -3.617125       -98.4270
   4   1.0000      -1.015680       -27.6381
   5   1.0000      -1.015680       -27.6381
   6   1.0000      -1.004617       -27.3370
   7   1.0000      -1.004617       -27.3370
   8   1.0000      -1.001156       -27.2428
   9   1.0000      -0.367992       -10.0136
  10   0.0000       0.029314         0.7977
  11   0.0000       0.029314         0.7977
  12   0.0000       0.062311         1.6956
  13   0.0000       0.276152         7.5145
  14   0.0000       0.310578         8.4513

E(0)                                       ...   -189.206336125
E(0)                                       ...   -189.206336125
E(CORR)                                    ...     -0.064300032
E(TOT)                                     ...   -189.270636157
E(CCSD(T))                                 ...   -189.272530056

MULLIKEN ATOMIC CHARGES AND SPIN DENSITIES
------------------------------------------
   0 In:    0.000000    1.000000
Sum of atomic charges       :    0.0000000

LOEWDIN ATOMIC CHARGES AND SPIN DENSITIES
-----------------------------------------
   0 In:   -0.000000    1.000000

FINAL SINGLE POINT ENERGY      -189.272530056438

DIPOLE MOMENT
-------------
                                X             Y             Z
Electronic contribution:      0.00000       0.00000      -0.00000
Nuclear contribution   :      0.00000       0.00000       0.00000
                        -----------------------------------------
Total Dipole Moment    :      0.00000       0.00000      -0.00000
                        -----------------------------------------
Magnitude (a.u.)       :      0.00000
Magnitude (Debye)      :      0.00000

Rotational constants in cm-1:     0.000000     0.000000     0.000000
Rotational constants in MHz :     0.000000     0.000000     0.000000

                             ****ORCA TERMINATED NORMALLY****
TOTAL RUN TIME: 0 days 0 hours 0 minutes 9 seconds 512 msec
