                         Program Version 4.2.0 -  RELEASE  -
|  1> #
|  2> # 50_Sn CCSD(T)/Def2-SVP
|  3> #
|  4> ! CCSD(T) Def2-SVP tightscf
|  5>
|  6> *xyz 0 3
|  7>  Sn 0.0 0.0 0.0
|  8> *
|  9>
| 10> %maxcore 5000
| 11>
| 12> %pal
| 13> nprocs 24
| 14> end
| 15>
| 16>
| 17>                          ****END OF INPUT****

CARTESIAN COORDINATES (ANGSTROEM)
---------------------------------
  Sn     0.000000    0.000000    0.000000

 Total Charge           Charge          ....    0
 Multiplicity           Mult            ....    3
 Number of Electrons    NEL             ....   22
 Basis Dimension        Dim             ....   26

ORBITAL ENERGIES
----------------
                 SPIN UP ORBITALS
  NO   OCC          E(Eh)            E(eV)
   0   1.0000      -5.859502      -159.4451
   1   1.0000      -4.048380      -110.1620
   2   1.0000      -4.043973      -110.0421
   3   1.0000      -4.043973      -110.0421
   4   1.0000      -1.315040       -35.7841
   5   1.0000      -1.312006       -35.7015
   6   1.0000      -1.312006       -35.7015
   7   1.0000      -1.303240       -35.4630
   8   1.0000      -1.303240       -35.4630
   9   1.0000      -0.572896       -15.5893
  10   1.0000      -0.265721        -7.2306
  11   1.0000      -0.265721        -7.2306
  12   0.0000      -0.011962        -0.3255
  13   0.0000       0.256543         6.9809
  14   0.0000       0.353644         9.6231
  15   0.0000       0.353644         9.6231
  16   0.0000       0.373876        10.1737

                 SPIN DOWN ORBITALS
  NO   OCC          E(Eh)            E(eV)
   0   1.0000      -5.853076      -159.2703
   1   1.0000      -4.049477      -110.1919
   2   1.0000      -4.033616      -109.7603
   3   1.0000      -4.033616      -109.7603
   4   1.0000      -1.311933       -35.6995
   5   1.0000      -1.307106       -35.5682
   6   1.0000      -1.307106       -35.5682
   7   1.0000      -1.293232       -35.1906
   8   1.0000      -1.293232       -35.1906
   9   1.0000      -0.441098       -12.0029
  10   0.0000       0.013721         0.3734
  11   0.0000       0.053253         1.4491
  12   0.0000       0.053253         1.4491
  13   0.0000       0.288622         7.8538
  14   0.0000       0.384159        10.4535

E(0)                                       ...   -213.336133406
E(0)                                       ...   -213.336133406
E(CORR)                                    ...     -0.070656049
E(TOT)                                     ...   -213.406789454
E(CCSD(T))                                 ...   -213.408298898

MULLIKEN ATOMIC CHARGES AND SPIN DENSITIES
------------------------------------------
   0 Sn:   -0.000000    2.000000
Sum of atomic charges       :   -0.0000000

LOEWDIN ATOMIC CHARGES AND SPIN DENSITIES
-----------------------------------------
   0 Sn:   -0.000000    2.000000

FINAL SINGLE POINT ENERGY      -213.408298897589

DIPOLE MOMENT
-------------
                                X             Y             Z
Electronic contribution:      0.00000       0.00000       0.00000
Nuclear contribution   :      0.00000       0.00000       0.00000
                        -----------------------------------------
Total Dipole Moment    :      0.00000       0.00000       0.00000
                        -----------------------------------------
Magnitude (a.u.)       :      0.00000
Magnitude (Debye)      :      0.00000

Rotational constants in cm-1:     0.000000     0.000000     0.000000
Rotational constants in MHz :     0.000000     0.000000     0.000000

                             ****ORCA TERMINATED NORMALLY****
TOTAL RUN TIME: 0 days 0 hours 0 minutes 9 seconds 779 msec
