                         Program Version 4.2.0 -  RELEASE  -
|  1> # input to generate an atomic fitting density for Sn
|  2> # this file is use internally by ORCA
|  3> #
|  4> # atomic ground state (S=3): 1s2 2s2 2p6 3s2 3p6 4s2 3d10 4p6 5s2 4d10 5p2
|  5> #
|  6> ! RHF AllowRHF def2-SVP def2/J  NoMulliken NoLoewdin NoMayer NoPrintMOs
|  7>
|  8> %output print[p_atomdensfit] 2 end
|  9>
| 10> %scf
| 11>   guess hcore
| 12>   maxiter 1000
| 13>   maxdisk 500000
| 14>   SCFMode Conventional
| 15>   lshift 1.000000
| 16>   hftyp rohf
| 17>   rohf_case sahf
| 18>   rohf_numop   2
| 19>   rohf_norb[1] 3
| 20>   rohf_nel[1]  2
| 21> end
| 22>
| 23> %basis
| 24>   NewECP 50
| 25>     N_core 28
| 26>     lmax f
| 27>     s 4
| 28>       1      17.4204140000    279.9886820000  2
| 29>       2       7.6311550000     62.3778100000  2
| 30>       3      12.2823480000     12.5763330000  2
| 31>       4      12.2721500000     16.5959440000  2
| 32>     p 6
| 33>       1      16.1310240000     66.1625230000  2
| 34>       2      15.6280770000    132.1743960000  2
| 35>       3       7.3256080000     16.3394170000  2
| 36>       4       6.9425190000     32.4889590000  2
| 37>       5      12.2823480000     12.5763330000  2
| 38>       6      12.2721500000     16.5959440000  2
| 39>     d 6
| 40>       1      15.5149760000     36.3874410000  2
| 41>       2      15.1881600000     54.5078410000  2
| 42>       3       5.4560240000      8.6968230000  2
| 43>       4       5.3631050000     12.8402080000  2
| 44>       5      12.2823480000     12.5763330000  2
| 45>       6      12.2721500000     16.5959440000  2
| 46>     f 2
| 47>       1      12.2823480000    -12.5763330000  2
| 48>       2      12.2721500000    -16.5959440000  2
| 49>   end
| 50>   NewGTO 50
| 51>     s 6
| 52>      1     375.9515617700      0.0014565513
| 53>      2      23.6618180080     -0.1604951396
| 54>      3      19.9462813150      0.3251706402
| 55>      4       6.8240270454     -0.8078471974
| 56>      5       1.8771488722      0.8863452546
| 57>      6       0.8203319923      0.5079178345
| 58>     s 2
| 59>      1      10.3415498870     -0.0400951173
| 60>      2       1.3672524155      1.0200482364
| 61>     s 1
| 62>      1       0.1831484382      1.0000000000
| 63>     s 1
| 64>      1       0.0695472261      1.0000000000
| 65>     p 4
| 66>      1      21.2935977480      0.0377060237
| 67>      2       8.8171842499     -0.3287731866
| 68>      3       1.2347028371      0.8520899532
| 69>      4       0.5786914262      0.2367344390
| 70>     p 1
| 71>      1       2.5084050284      1.0000000000
| 72>     p 1
| 73>      1       0.2129857772      1.0000000000
| 74>     p 1
| 75>      1       0.0673645847      1.0000000000
| 76>   end
| 77>   NewAuxGTO 50
| 78>     S 1
| 79>      1 1310.72 1.0
| 80>     S 1
| 81>      1  655.36 1.0
| 82>     S 1
| 83>      1  327.68 1.0
| 84>     S 1
| 85>      1  163.84 1.0
| 86>     S 1
| 87>      1   81.82 1.0
| 88>     S 1
| 89>      1   40.96 1.0
| 90>     S 1
| 91>      1   20.48 1.0
| 92>     S 1
| 93>      1   10.24 1.0
| 94>     S 1
| 95>      1    5.12 1.0
| 96>     S 1
| 97>      1    2.56 1.0
| 98>     S 1
| 99>      1    1.28 1.0
|100>     S 1
|101>      1    0.64 1.0
|102>     S 1
|103>      1    0.32 1.0
|104>     S 1
|105>      1    0.16 1.0
|106>     S 1
|107>      1    0.08 1.0
|108>     S 1
|109>      1    0.04 1.0
|110>     S 1
|111>      1    0.02 1.0
|112>     S 1
|113>      1    0.01 1.0
|114>   end
|115> end
|116>
|117> * xyz 0 3
|118> 50  0.0 0.0 0.0
|119> *
|120>
|121>
|122>                          ****END OF INPUT****

CARTESIAN COORDINATES (ANGSTROEM)
---------------------------------
  Sn     0.000000    0.000000    0.000000

 Total Charge           Charge          ....    0
 Multiplicity           Mult            ....    3
 Number of Electrons    NEL             ....   22
 Basis Dimension        Dim             ....   16

ORBITAL ENERGIES
----------------

  NO   OCC          E(Eh)            E(eV)
   0   2.0000     -10.387099      -282.6473
   1   2.0000      -8.310505      -226.1403
   2   2.0000      -8.307270      -226.0523
   3   2.0000      -8.282695      -225.3836
   4   2.0000      -2.364963       -64.3539
   5   2.0000      -1.616090       -43.9760
   6   2.0000      -1.612833       -43.8874
   7   2.0000      -1.596866       -43.4529
   8   2.0000      -0.366388        -9.9699
   9   2.0000      -0.188886        -5.1398
  10   0.6667      -0.238059        -6.4779
  11   0.6667      -0.237378        -6.4594
  12   0.6667       9.767059       265.7752
  13   0.0000      10.286781       279.9175
  14   0.0000      10.290756       280.0257
  15   0.0000      46.293572      1259.7121
CleanUpVectors: The p-vectors have cracked symmetry
CleanUpVectors: The p-vectors have cracked symmetry
CleanUpVectors: The p-vectors have cracked symmetry
CleanUpVectors: The p-vectors have cracked symmetry
CleanUpVectors: The p-vectors have cracked symmetry
CleanUpVectors: The p-vectors have cracked symmetry
CleanUpVectors: The p-vectors have cracked symmetry
CleanUpVectors: The p-vectors have cracked symmetry
CleanUpVectors: The p-vectors have cracked symmetry
CleanUpVectors: The p-vectors have cracked symmetry
CleanUpVectors: The p-vectors have cracked symmetry
--------------------------
ATOM BASIS FOR ELEMENT Sn
--------------------------
 NewGTO Sn
 S 10
    1        375.951561770000        -0.001193227544
    2         23.661818008000         0.131479901394
    3         19.946281315000        -0.266384413984
    4          6.824027045400         0.661799915686
    5          1.877148872200        -0.726106640774
    6          0.820331992300        -0.416093515122
    7         10.341549887000         0.010129016712
    8          1.367252415500        -0.257689372900
    9          0.183148438200         0.127603233809
   10          0.069547226100        -0.057108278559
 P 17
    1         21.293597748000         0.000706432913
    2          8.817184249900        -0.006159657720
    3          1.234702837100         0.015964143890
    4          0.578691426200         0.004435286009
    5         21.293597748000         0.000453982503
    6          8.817184249900        -0.003958446408
    7          1.234702837100         0.010259207720
    8          0.578691426200         0.002850295060
    9         21.293597748000        -0.020961418883
   10          8.817184249900         0.182770597525
   11          1.234702837100        -0.473691274832
   12          0.578691426200        -0.131604694769
   13          2.508405028400         0.019354274928
   14          2.508405028400         0.012437843716
   15          2.508405028400        -0.574283921975
   16          0.212985777200        -0.003219075121
   17          0.212985777200        -0.002068708511
 S 10
    1        375.951561770000        -0.000448222459
    2         23.661818008000         0.049388940911
    3         19.946281315000        -0.100064298363
    4          6.824027045400         0.248597668420
    5          1.877148872200        -0.272753763853
    6          0.820331992300        -0.156300832400
    7         10.341549887000         0.018822326373
    8          1.367252415500        -0.478853339617
    9          0.183148438200         1.657832296672
   10          0.069547226100        -0.493249544247
 S 10
    1        375.951561770000        -0.000144337908
    2         23.661818008000         0.015904371347
    3         19.946281315000        -0.032222998314
    4          6.824027045400         0.080054148997
    5          1.877148872200        -0.087832965570
    6          0.820331992300        -0.050332451647
    7         10.341549887000         0.008273702744
    8          1.367252415500        -0.210488868991
    9          0.183148438200         1.610183341147
   10          0.069547226100        -1.947251469389
 P 17
    1         21.293597748000        -0.000148611407
    2          8.817184249900         0.001295799476
    3          1.234702837100        -0.003358356946
    4          0.578691426200        -0.000933045560
    5         21.293597748000        -0.000095503730
    6          8.817184249900         0.000832733410
    7          1.234702837100        -0.002158216672
    8          0.578691426200        -0.000599613000
    9         21.293597748000         0.004409627424
   10          8.817184249900        -0.038449221573
   11          1.234702837100         0.099649839908
   12          0.578691426200         0.027685514726
   13          2.508405028400        -0.010264358228
   14          2.508405028400        -0.006596293788
   15          2.508405028400         0.304566093087
   16          0.212985777200         0.041087300961
   17          0.212985777200         0.026404369574
 P 17
    1         21.293597748000         0.001171366268
    2          8.817184249900        -0.010213588780
    3          1.234702837100         0.026470821649
    4          0.578691426200         0.007354335172
    5         21.293597748000        -0.000210226223
    6          8.817184249900         0.001833042530
    7          1.234702837100        -0.004750743635
    8          0.578691426200        -0.001319889555
    9         21.293597748000         0.000034923812
   10          8.817184249900        -0.000304514025
   11          1.234702837100         0.000789216859
   12          0.578691426200         0.000219266534
   13          2.508405028400         0.099801517346
   14          2.508405028400        -0.019425154390
   15          2.508405028400         0.002942758635
   16          0.212985777200        -0.751524085815
   17          0.212985777200         0.145242542257
 P 17
    1         21.293597748000         0.013603889421
    2          8.817184249900        -0.118617494933
    3          1.234702837100         0.307424023081
    4          0.578691426200         0.085410998411
    5         21.293597748000        -0.055515856416
    6          8.817184249900         0.484063903582
    7          1.234702837100        -1.254560912386
    8          0.578691426200        -0.348552136626
    9         21.293597748000        -0.000743890110
   10          8.817184249900         0.006486261291
   11          1.234702837100        -0.016810610795
   12          0.578691426200        -0.004670458208
   13          2.508405028400        -0.285624753180
   14          2.508405028400         1.166058172962
   15          2.508405028400         0.015628487889
   16          0.212985777200        -0.195701358356
   17          0.212985777200         0.798498305593
 S 10
    1        375.951561770000        -0.003560573612
    2         23.661818008000         0.392334110648
    3         19.946281315000        -0.794887211223
    4          6.824027045400         1.974801308756
    5          1.877148872200        -2.166691639739
    6          0.820331992300        -1.241616988385
    7         10.341549887000        -0.093796141346
    8          1.367252415500         2.386240395434
    9          0.183148438200         0.521292922824
   10          0.069547226100        -0.242428799556
 end
  // -----------------------------------------------
  // The basis set
  // -----------------------------------------------
  BAS[ATNO] = new BFNGauss[NSH];
  // Basis function   1 L = s
  InitBFNGauss(BAS[ATNO][  0]);
  BAS[ATNO][  0].l  = 0;
  BAS[ATNO][  0].ng = 10;
  BAS[ATNO][  0].a[  0] =       375.951561770000;     BAS[ATNO][  0].d[  0] =         0.001193227544;
  BAS[ATNO][  0].a[  1] =        23.661818008000;     BAS[ATNO][  0].d[  1] =        -0.131479901394;
  BAS[ATNO][  0].a[  2] =        19.946281315000;     BAS[ATNO][  0].d[  2] =         0.266384413984;
  BAS[ATNO][  0].a[  3] =         6.824027045400;     BAS[ATNO][  0].d[  3] =        -0.661799915686;
  BAS[ATNO][  0].a[  4] =         1.877148872200;     BAS[ATNO][  0].d[  4] =         0.726106640774;
  BAS[ATNO][  0].a[  5] =         0.820331992300;     BAS[ATNO][  0].d[  5] =         0.416093515122;
  BAS[ATNO][  0].a[  6] =        10.341549887000;     BAS[ATNO][  0].d[  6] =        -0.010129016712;
  BAS[ATNO][  0].a[  7] =         1.367252415500;     BAS[ATNO][  0].d[  7] =         0.257689372900;
  BAS[ATNO][  0].a[  8] =         0.183148438200;     BAS[ATNO][  0].d[  8] =        -0.127603233809;
  BAS[ATNO][  0].a[  9] =         0.069547226100;     BAS[ATNO][  0].d[  9] =         0.057108278559;

FINAL SINGLE POINT ENERGY      -180.070549308096

DIPOLE MOMENT
-------------
                                X             Y             Z
Electronic contribution:      0.00000      -0.00000       0.00000
Nuclear contribution   :      0.00000       0.00000       0.00000
                        -----------------------------------------
Total Dipole Moment    :      0.00000      -0.00000       0.00000
                        -----------------------------------------
Magnitude (a.u.)       :      0.00000
Magnitude (Debye)      :      0.00000

Rotational constants in cm-1:     0.000000     0.000000     0.000000
Rotational constants in MHz :     0.000000     0.000000     0.000000

                             ****ORCA TERMINATED NORMALLY****
TOTAL RUN TIME: 0 days 0 hours 0 minutes 1 seconds 45 msec
