                         Program Version 4.2.0 -  RELEASE  -
|  1> # input to generate an atomic fitting density for Sb
|  2> # this file is use internally by ORCA
|  3> #
|  4> # atomic ground state (S=4): 1s2 2s2 2p6 3s2 3p6 4s2 3d10 4p6 5s2 4d10 5p3
|  5> #
|  6> ! RHF AllowRHF def2-SVP def2/J  NoMulliken NoLoewdin NoMayer NoPrintMOs
|  7>
|  8> %output print[p_atomdensfit] 2 end
|  9>
| 10> %scf
| 11>   guess hcore
| 12>   maxiter 1000
| 13>   maxdisk 500000
| 14>   SCFMode Conventional
| 15>   lshift 1.000000
| 16>   hftyp rohf
| 17>   rohf_case sahf
| 18>   rohf_numop   2
| 19>   rohf_norb[1] 3
| 20>   rohf_nel[1]  3
| 21> end
| 22>
| 23> %basis
| 24>   NewECP 51
| 25>     N_core 28
| 26>     lmax f
| 27>     s 4
| 28>       1      16.3308650000    281.0715810000  2
| 29>       2       8.5565420000     61.7166040000  2
| 30>       3      14.4449780000     15.3668010000  2
| 31>       4      14.4492950000     20.2961380000  2
| 32>     p 6
| 33>       1      14.4703370000     67.4573800000  2
| 34>       2      13.8161940000    134.9335030000  2
| 35>       3       8.4249240000     14.7163440000  2
| 36>       4       8.0927280000     29.5185120000  2
| 37>       5      14.4449780000     15.3668010000  2
| 38>       6      14.4492950000     20.2961380000  2
| 39>     d 6
| 40>       1      14.8863310000     35.4478150000  2
| 41>       2      15.1463190000     53.1434660000  2
| 42>       3       5.9082670000      9.1792230000  2
| 43>       4       5.5943220000     13.2402530000  2
| 44>       5      14.4449780000     15.3668010000  2
| 45>       6      14.4492950000     20.2961380000  2
| 46>     f 2
| 47>       1      14.4449780000    -15.3668010000  2
| 48>       2      14.4492950000    -20.2961380000  2
| 49>   end
| 50>   NewGTO 51
| 51>     s 6
| 52>      1     372.7613916600      0.0015233445
| 53>      2      22.6894785960     -0.1441752027
| 54>      3      18.3915470370      0.3445771582
| 55>      4       7.6406271414     -0.7176818096
| 56>      5       1.9052000235      0.8828188508
| 57>      6       0.9300710777      0.4485597434
| 58>     s 2
| 59>      1      10.5844969870     -0.0429961647
| 60>      2       1.4680242769      1.0220804234
| 61>     s 1
| 62>      1       0.2162119003      1.0000000000
| 63>     s 1
| 64>      1       0.0835463070      1.0000000000
| 65>     p 4
| 66>      1      15.9265509500      0.1599032740
| 67>      2      10.0527392370     -0.5025966390
| 68>      3       1.2682183726      0.8983526656
| 69>      4       0.5719662093      0.1886443556
| 70>     p 1
| 71>      1       2.6190751238      1.0000000000
| 72>     p 1
| 73>      1       0.2518328265      1.0000000000
| 74>     p 1
| 75>      1       0.0833891277      1.0000000000
| 76>   end
| 77>   NewAuxGTO 51
| 78>     S 1
| 79>      1 1310.72 1.0
| 80>     S 1
| 81>      1  655.36 1.0
| 82>     S 1
| 83>      1  327.68 1.0
| 84>     S 1
| 85>      1  163.84 1.0
| 86>     S 1
| 87>      1   81.82 1.0
| 88>     S 1
| 89>      1   40.96 1.0
| 90>     S 1
| 91>      1   20.48 1.0
| 92>     S 1
| 93>      1   10.24 1.0
| 94>     S 1
| 95>      1    5.12 1.0
| 96>     S 1
| 97>      1    2.56 1.0
| 98>     S 1
| 99>      1    1.28 1.0
|100>     S 1
|101>      1    0.64 1.0
|102>     S 1
|103>      1    0.32 1.0
|104>     S 1
|105>      1    0.16 1.0
|106>     S 1
|107>      1    0.08 1.0
|108>     S 1
|109>      1    0.04 1.0
|110>     S 1
|111>      1    0.02 1.0
|112>     S 1
|113>      1    0.01 1.0
|114>   end
|115> end
|116>
|117> * xyz 0 4
|118> 51  0.0 0.0 0.0
|119> *
|120>
|121>
|122>                          ****END OF INPUT****

CARTESIAN COORDINATES (ANGSTROEM)
---------------------------------
  Sb     0.000000    0.000000    0.000000

 Total Charge           Charge          ....    0
 Multiplicity           Mult            ....    4
 Number of Electrons    NEL             ....   23
 Basis Dimension        Dim             ....   16

ORBITAL ENERGIES
----------------

  NO   OCC          E(Eh)            E(eV)
   0   2.0000     -11.094780      -301.9043
   1   2.0000      -8.898255      -242.1338
   2   2.0000      -8.894529      -242.0324
   3   2.0000      -8.851514      -240.8619
   4   2.0000      -2.566958       -69.8505
   5   2.0000      -1.768650       -48.1274
   6   2.0000      -1.760339       -47.9013
   7   2.0000      -1.752771       -47.6953
   8   2.0000      -0.407326       -11.0839
   9   2.0000      -0.205957        -5.6044
  10   1.0000      -0.255835        -6.9616
  11   1.0000      -0.254187        -6.9168
  12   1.0000      12.914333       351.4169
  13   0.0000      14.077161       383.0590
  14   0.0000      14.083033       383.2188
  15   0.0000      49.241989      1339.9426
CleanUpVectors: The p-vectors have cracked symmetry
CleanUpVectors: The p-vectors have cracked symmetry
CleanUpVectors: The p-vectors have cracked symmetry
CleanUpVectors: The p-vectors have cracked symmetry
CleanUpVectors: The p-vectors have cracked symmetry
CleanUpVectors: The p-vectors have cracked symmetry
CleanUpVectors: The p-vectors have cracked symmetry
CleanUpVectors: The p-vectors have cracked symmetry
CleanUpVectors: The p-vectors have cracked symmetry
CleanUpVectors: The p-vectors have cracked symmetry
CleanUpVectors: The p-vectors have cracked symmetry
--------------------------
ATOM BASIS FOR ELEMENT Sb
--------------------------
 NewGTO Sb
 S 10
    1        372.761391660000        -0.001633038760
    2         22.689478596000         0.154557090777
    3         18.391547037000        -0.369389757201
    4          7.640627141400         0.769361239093
    5          1.905200023500        -0.946389605896
    6          0.930071077700        -0.480860007002
    7         10.584496987000        -0.000745215599
    8          1.468024276900         0.017714842247
    9          0.216211900300         0.125241581281
   10          0.083546307000        -0.055306100282
 P 17
    1         15.926550950000         0.004518485625
    2         10.052739237000        -0.014202183805
    3          1.268218372600         0.025385306404
    4          0.571966209300         0.005330640128
    5         15.926550950000        -0.004422480992
    6         10.052739237000         0.013900428848
    7          1.268218372600        -0.024845942729
    8          0.571966209300        -0.005217379583
    9         15.926550950000        -0.085651861266
   10         10.052739237000         0.269214860457
   11          1.268218372600        -0.481200765672
   12          0.571966209300        -0.101046962769
   13          2.619075123800         0.032109493566
   14          2.619075123800        -0.031427260539
   15          2.619075123800        -0.608663635711
   16          0.251832826500        -0.005405977406
   17          0.251832826500         0.005291116164
 S 10
    1        372.761391660000        -0.000654010952
    2         22.689478596000         0.061898120575
    3         18.391547037000        -0.147935831448
    4          7.640627141400         0.308119249031
    5          1.905200023500        -0.379016825703
    6          0.930071077700        -0.192578228169
    7         10.584496987000         0.017330608698
    8          1.468024276900        -0.411973393420
    9          0.216211900300         1.687917094504
   10          0.083546307000        -0.479218764123
 S 10
    1        372.761391660000        -0.000222793382
    2         22.689478596000         0.021086025491
    3         18.391547037000        -0.050395370392
    4          7.640627141400         0.104962966227
    5          1.905200023500        -0.129114719060
    6          0.930071077700        -0.065603113479
    7         10.584496987000         0.008814527856
    8          1.468024276900        -0.209533953225
    9          0.216211900300         1.719333858027
   10          0.083546307000        -2.004128631262
 P 17
    1         15.926550950000         0.001227959281
    2         10.052739237000        -0.003859634589
    3          1.268218372600         0.006898798663
    4          0.571966209300         0.001448673197
    5         15.926550950000        -0.001201868730
    6         10.052739237000         0.003777628618
    7          1.268218372600        -0.006752219326
    8          0.571966209300        -0.001417893120
    9         15.926550950000        -0.023277046044
   10         10.052739237000         0.073162761554
   11          1.268218372600        -0.130772784306
   12          0.571966209300        -0.027460872072
   13          2.619075123800         0.017352031419
   14          2.619075123800        -0.016983351393
   15          2.619075123800        -0.328922986871
   16          0.251832826500        -0.065791523310
   17          0.251832826500         0.064393645451
 P 17
    1         15.926550950000         0.002880201013
    2         10.052739237000        -0.009052843712
    3          1.268218372600         0.016181258785
    4          0.571966209300         0.003397889552
    5         15.926550950000        -0.006810175774
    6         10.052739237000         0.021405261879
    7          1.268218372600        -0.038260252008
    8          0.571966209300        -0.008034239627
    9         15.926550950000         0.000503573643
   10         10.052739237000        -0.001582796987
   11          1.268218372600         0.002829127341
   12          0.571966209300         0.000594086181
   13          2.619075123800         0.045713968682
   14          2.619075123800        -0.109294626161
   15          2.619075123800         0.008054831581
   16          0.251832826500        -0.330373814676
   17          0.251832826500         0.786384444408
 P 17
    1         15.926550950000        -0.230506144672
    2         10.052739237000         0.724510578695
    3          1.268218372600        -1.295006689501
    4          0.571966209300        -0.271937415887
    5         15.926550950000        -0.063234787976
    6         10.052739237000         0.198755104317
    7          1.268218372600        -0.355259394730
    8          0.571966209300        -0.074600635314
    9         15.926550950000        -0.008895125476
   10         10.052739237000         0.027958528028
   11          1.268218372600        -0.049973708996
   12          0.571966209300        -0.010493939064
   13          2.619075123800         1.067502549883
   14          2.619075123800         0.292833595552
   15          2.619075123800         0.041195180859
   16          0.251832826500         0.840010681758
   17          0.251832826500         0.230687146861
 S 10
    1        372.761391660000        -0.004709461588
    2         22.689478596000         0.445721620444
    3         18.391547037000        -1.065269799832
    4          7.640627141400         2.218733132659
    5          1.905200023500        -2.729258855672
    6          0.930071077700        -1.386734833384
    7         10.584496987000        -0.130784534219
    8          1.468024276900         3.108935716503
    9          0.216211900300         0.511466755096
   10          0.083546307000        -0.235894098632
 end
  // -----------------------------------------------
  // The basis set
  // -----------------------------------------------
  BAS[ATNO] = new BFNGauss[NSH];
  // Basis function   1 L = s
  InitBFNGauss(BAS[ATNO][  0]);
  BAS[ATNO][  0].l  = 0;
  BAS[ATNO][  0].ng = 10;
  BAS[ATNO][  0].a[  0] =       372.761391660000;     BAS[ATNO][  0].d[  0] =         0.001633038760;
  BAS[ATNO][  0].a[  1] =        22.689478596000;     BAS[ATNO][  0].d[  1] =        -0.154557090777;
  BAS[ATNO][  0].a[  2] =        18.391547037000;     BAS[ATNO][  0].d[  2] =         0.369389757201;
  BAS[ATNO][  0].a[  3] =         7.640627141400;     BAS[ATNO][  0].d[  3] =        -0.769361239093;
  BAS[ATNO][  0].a[  4] =         1.905200023500;     BAS[ATNO][  0].d[  4] =         0.946389605896;
  BAS[ATNO][  0].a[  5] =         0.930071077700;     BAS[ATNO][  0].d[  5] =         0.480860007002;
  BAS[ATNO][  0].a[  6] =        10.584496987000;     BAS[ATNO][  0].d[  6] =         0.000745215599;
  BAS[ATNO][  0].a[  7] =         1.468024276900;     BAS[ATNO][  0].d[  7] =        -0.017714842247;
  BAS[ATNO][  0].a[  8] =         0.216211900300;     BAS[ATNO][  0].d[  8] =        -0.125241581281;
  BAS[ATNO][  0].a[  9] =         0.083546307000;     BAS[ATNO][  0].d[  9] =         0.055306100282;

FINAL SINGLE POINT ENERGY      -194.614719040906

DIPOLE MOMENT
-------------
                                X             Y             Z
Electronic contribution:      0.00000       0.00000       0.00000
Nuclear contribution   :      0.00000       0.00000       0.00000
                        -----------------------------------------
Total Dipole Moment    :      0.00000       0.00000       0.00000
                        -----------------------------------------
Magnitude (a.u.)       :      0.00000
Magnitude (Debye)      :      0.00000

Rotational constants in cm-1:     0.000000     0.000000     0.000000
Rotational constants in MHz :     0.000000     0.000000     0.000000

                             ****ORCA TERMINATED NORMALLY****
TOTAL RUN TIME: 0 days 0 hours 0 minutes 8 seconds 668 msec
