                         Program Version 4.2.0 -  RELEASE  -
|  1> #
|  2> # 51_Sb CCSD(T)/Def2-SVP
|  3> #
|  4> ! CCSD(T) Def2-SVP tightscf
|  5>
|  6> *xyz 0 4
|  7>  Sb 0.0 0.0 0.0
|  8> *
|  9>
| 10> %maxcore 5000
| 11>
| 12> %pal
| 13> nprocs 24
| 14> end
| 15>
| 16>
| 17>                          ****END OF INPUT****

CARTESIAN COORDINATES (ANGSTROEM)
---------------------------------
  Sb     0.000000    0.000000    0.000000

 Total Charge           Charge          ....    0
 Multiplicity           Mult            ....    4
 Number of Electrons    NEL             ....   23
 Basis Dimension        Dim             ....   26

ORBITAL ENERGIES
----------------
                 SPIN UP ORBITALS
  NO   OCC          E(Eh)            E(eV)
   0   1.0000      -6.525321      -177.5630
   1   1.0000      -4.592525      -124.9690
   2   1.0000      -4.592525      -124.9690
   3   1.0000      -4.592525      -124.9690
   4   1.0000      -1.619558       -44.0704
   5   1.0000      -1.619558       -44.0704
   6   1.0000      -1.619558       -44.0704
   7   1.0000      -1.619558       -44.0704
   8   1.0000      -1.619558       -44.0704
   9   1.0000      -0.730600       -19.8806
  10   1.0000      -0.333319        -9.0701
  11   1.0000      -0.333319        -9.0701
  12   1.0000      -0.333319        -9.0701
  13   0.0000       0.293772         7.9939
  14   0.0000       0.411187        11.1890
  15   0.0000       0.411187        11.1890
  16   0.0000       0.411187        11.1890
  17   0.0000       0.468761        12.7556

                 SPIN DOWN ORBITALS
  NO   OCC          E(Eh)            E(eV)
   0   1.0000      -6.511140      -177.1771
   1   1.0000      -4.578367      -124.5837
   2   1.0000      -4.578367      -124.5837
   3   1.0000      -4.578367      -124.5837
   4   1.0000      -1.606383       -43.7119
   5   1.0000      -1.606383       -43.7119
   6   1.0000      -1.606383       -43.7119
   7   1.0000      -1.606383       -43.7119
   8   1.0000      -1.606383       -43.7119
   9   1.0000      -0.506957       -13.7950
  10   0.0000       0.038641         1.0515
  11   0.0000       0.038641         1.0515
  12   0.0000       0.038641         1.0515
  13   0.0000       0.344154         9.3649
  14   0.0000       0.481842        13.1116

E(0)                                       ...   -239.273346739
E(0)                                       ...   -239.273346739
E(CORR)                                    ...     -0.077859613
E(TOT)                                     ...   -239.351206351
E(CCSD(T))                                 ...   -239.352428532

MULLIKEN ATOMIC CHARGES AND SPIN DENSITIES
------------------------------------------
   0 Sb:   -0.000000    3.000000
Sum of atomic charges       :   -0.0000000

LOEWDIN ATOMIC CHARGES AND SPIN DENSITIES
-----------------------------------------
   0 Sb:   -0.000000    3.000000

FINAL SINGLE POINT ENERGY      -239.352428531769

DIPOLE MOMENT
-------------
                                X             Y             Z
Electronic contribution:     -0.00000       0.00000      -0.00000
Nuclear contribution   :      0.00000       0.00000       0.00000
                        -----------------------------------------
Total Dipole Moment    :     -0.00000       0.00000      -0.00000
                        -----------------------------------------
Magnitude (a.u.)       :      0.00000
Magnitude (Debye)      :      0.00000

Rotational constants in cm-1:     0.000000     0.000000     0.000000
Rotational constants in MHz :     0.000000     0.000000     0.000000

                             ****ORCA TERMINATED NORMALLY****
TOTAL RUN TIME: 0 days 0 hours 0 minutes 16 seconds 868 msec
