                         Program Version 4.2.0 -  RELEASE  -
|  1> #
|  2> # 52_Te CCSD(T)/Def2-SVP
|  3> #
|  4> ! CCSD(T) Def2-SVP tightscf
|  5>
|  6> *xyz 0 3
|  7>  Te 0.0 0.0 0.0
|  8> *
|  9>
| 10> %maxcore 5000
| 11>
| 12> %pal
| 13> nprocs 24
| 14> end
| 15>
| 16>
| 17>                          ****END OF INPUT****

CARTESIAN COORDINATES (ANGSTROEM)
---------------------------------
  Te     0.000000    0.000000    0.000000

 Total Charge           Charge          ....    0
 Multiplicity           Mult            ....    3
 Number of Electrons    NEL             ....   24
 Basis Dimension        Dim             ....   26

ORBITAL ENERGIES
----------------
                 SPIN UP ORBITALS
  NO   OCC          E(Eh)            E(eV)
   0   1.0000      -7.135784      -194.1745
   1   1.0000      -5.109056      -139.0245
   2   1.0000      -5.109056      -139.0245
   3   1.0000      -5.087073      -138.4263
   4   1.0000      -1.967770       -53.5457
   5   1.0000      -1.967770       -53.5457
   6   1.0000      -1.949698       -53.0540
   7   1.0000      -1.949698       -53.0540
   8   1.0000      -1.943834       -52.8944
   9   1.0000      -0.829029       -22.5590
  10   1.0000      -0.394769       -10.7422
  11   1.0000      -0.394769       -10.7422
  12   1.0000      -0.341052        -9.2805
  13   0.0000       0.341840         9.3019
  14   0.0000       0.456467        12.4211
  15   0.0000       0.456467        12.4211
  16   0.0000       0.459155        12.4943
  17   0.0000       0.459155        12.4943

                 SPIN DOWN ORBITALS
  NO   OCC          E(Eh)            E(eV)
   0   1.0000      -7.122617      -193.8162
   1   1.0000      -5.090529      -138.5203
   2   1.0000      -5.090529      -138.5203
   3   1.0000      -5.084745      -138.3629
   4   1.0000      -1.951863       -53.1129
   5   1.0000      -1.951863       -53.1129
   6   1.0000      -1.940884       -52.8141
   7   1.0000      -1.940884       -52.8141
   8   1.0000      -1.937306       -52.7168
   9   1.0000      -0.664235       -18.0748
  10   1.0000      -0.305541        -8.3142
  11   0.0000      -0.004034        -0.1098
  12   0.0000      -0.004034        -0.1098
  13   0.0000       0.377034        10.2596
  14   0.0000       0.507210        13.8019
  15   0.0000       0.527085        14.3427

E(0)                                       ...   -266.996812608
E(0)                                       ...   -266.996812608
E(CORR)                                    ...     -0.090233780
E(TOT)                                     ...   -267.087046389
E(CCSD(T))                                 ...   -267.088261635

MULLIKEN ATOMIC CHARGES AND SPIN DENSITIES
------------------------------------------
   0 Te:   -0.000000    2.000000
Sum of atomic charges       :   -0.0000000

LOEWDIN ATOMIC CHARGES AND SPIN DENSITIES
-----------------------------------------
   0 Te:   -0.000000    2.000000

FINAL SINGLE POINT ENERGY      -267.088261635307

DIPOLE MOMENT
-------------
                                X             Y             Z
Electronic contribution:     -0.00000      -0.00000       0.00000
Nuclear contribution   :      0.00000       0.00000       0.00000
                        -----------------------------------------
Total Dipole Moment    :     -0.00000      -0.00000       0.00000
                        -----------------------------------------
Magnitude (a.u.)       :      0.00000
Magnitude (Debye)      :      0.00000

Rotational constants in cm-1:     0.000000     0.000000     0.000000
Rotational constants in MHz :     0.000000     0.000000     0.000000

                             ****ORCA TERMINATED NORMALLY****
TOTAL RUN TIME: 0 days 0 hours 0 minutes 9 seconds 840 msec
