                         Program Version 4.2.0 -  RELEASE  -
|  1> # input to generate an atomic fitting density for Te
|  2> # this file is use internally by ORCA
|  3> #
|  4> # atomic ground state (S=3): 1s2 2s2 2p6 3s2 3p6 4s2 3d10 4p6 5s2 4d10 5p4
|  5> #
|  6> ! RHF AllowRHF def2-SVP def2/J  NoMulliken NoLoewdin NoMayer NoPrintMOs
|  7>
|  8> %output print[p_atomdensfit] 2 end
|  9>
| 10> %scf
| 11>   guess hcore
| 12>   maxiter 1000
| 13>   maxdisk 500000
| 14>   SCFMode Conventional
| 15>   lshift 1.000000
| 16>   hftyp rohf
| 17>   rohf_case sahf
| 18>   rohf_numop   2
| 19>   rohf_norb[1] 3
| 20>   rohf_nel[1]  4
| 21> end
| 22>
| 23> %basis
| 24>   NewECP 52
| 25>     N_core 28
| 26>     lmax f
| 27>     s 4
| 28>       1      16.8144730000    281.0458430000  2
| 29>       2       8.7935260000     61.6206560000  2
| 30>       3      15.2061680000     15.7454500000  2
| 31>       4      15.2017020000     20.7424480000  2
| 32>     p 6
| 33>       1      14.8778010000     67.4494640000  2
| 34>       2      14.2697310000    134.9043040000  2
| 35>       3       8.7244350000     14.6895470000  2
| 36>       4       8.2915150000     29.4150630000  2
| 37>       5      15.2061680000     15.7454500000  2
| 38>       6      15.2017020000     20.7424480000  2
| 39>     d 6
| 40>       1      15.2050080000     35.4320570000  2
| 41>       2      15.2258480000     53.1356870000  2
| 42>       3       6.0717690000      9.0698020000  2
| 43>       4       5.8047600000     13.1223040000  2
| 44>       5      15.2061680000     15.7454500000  2
| 45>       6      15.2017020000     20.7424480000  2
| 46>     f 2
| 47>       1      15.2061680000    -15.7454500000  2
| 48>       2      15.2017020000    -20.7424480000  2
| 49>   end
| 50>   NewGTO 52
| 51>     s 6
| 52>      1     396.4795465900      0.0030253283
| 53>      2      21.9197733090     -0.1518373976
| 54>      3      18.0612713900      0.4163284156
| 55>      4       8.1403463241     -0.8692804290
| 56>      5       2.0705998798      0.9107003907
| 57>      6       0.9771518509      0.4664115742
| 58>     s 2
| 59>      1      11.2635638410     -0.0442151173
| 60>      2       1.6122696062      1.0231173270
| 61>     s 1
| 62>      1       0.2509540170      1.0000000000
| 63>     s 1
| 64>      1       0.0974784526      1.0000000000
| 65>     p 4
| 66>      1      17.4795022210      0.1336411720
| 67>      2      10.4339431710     -0.4781056569
| 68>      3       1.3623024763      0.9138600006
| 69>      4       0.5923961626      0.1773323151
| 70>     p 1
| 71>      1       2.7961737670      1.0000000000
| 72>     p 1
| 73>      1       0.2976640103      1.0000000000
| 74>     p 1
| 75>      1       0.0961510902      1.0000000000
| 76>   end
| 77>   NewAuxGTO 52
| 78>     S 1
| 79>      1 1310.72 1.0
| 80>     S 1
| 81>      1  655.36 1.0
| 82>     S 1
| 83>      1  327.68 1.0
| 84>     S 1
| 85>      1  163.84 1.0
| 86>     S 1
| 87>      1   81.82 1.0
| 88>     S 1
| 89>      1   40.96 1.0
| 90>     S 1
| 91>      1   20.48 1.0
| 92>     S 1
| 93>      1   10.24 1.0
| 94>     S 1
| 95>      1    5.12 1.0
| 96>     S 1
| 97>      1    2.56 1.0
| 98>     S 1
| 99>      1    1.28 1.0
|100>     S 1
|101>      1    0.64 1.0
|102>     S 1
|103>      1    0.32 1.0
|104>     S 1
|105>      1    0.16 1.0
|106>     S 1
|107>      1    0.08 1.0
|108>     S 1
|109>      1    0.04 1.0
|110>     S 1
|111>      1    0.02 1.0
|112>     S 1
|113>      1    0.01 1.0
|114>   end
|115> end
|116>
|117> * xyz 0 3
|118> 52  0.0 0.0 0.0
|119> *
|120>
|121>
|122>                          ****END OF INPUT****

CARTESIAN COORDINATES (ANGSTROEM)
---------------------------------
  Te     0.000000    0.000000    0.000000

 Total Charge           Charge          ....    0
 Multiplicity           Mult            ....    3
 Number of Electrons    NEL             ....   24
 Basis Dimension        Dim             ....   16

ORBITAL ENERGIES
----------------

  NO   OCC          E(Eh)            E(eV)
   0   2.0000     -11.741205      -319.4944
   1   2.0000      -9.453273      -257.2366
   2   2.0000      -9.452814      -257.2241
   3   2.0000      -9.386244      -255.4127
   4   2.0000      -2.784491       -75.7698
   5   2.0000      -1.950136       -53.0659
   6   2.0000      -1.949186       -53.0401
   7   2.0000      -1.928542       -52.4783
   8   2.0000      -0.453918       -12.3517
   9   2.0000      -0.225605        -6.1390
  10   1.3333      -0.257131        -6.9969
  11   1.3333      -0.256822        -6.9885
  12   1.3333      13.647785       371.3751
  13   0.0000      14.481341       394.0573
  14   0.0000      14.481828       394.0706
  15   0.0000      47.366390      1288.9050
CleanUpVectors: The p-vectors have cracked symmetry
CleanUpVectors: The p-vectors have cracked symmetry
CleanUpVectors: The p-vectors have cracked symmetry
CleanUpVectors: The p-vectors have cracked symmetry
CleanUpVectors: The p-vectors have cracked symmetry
CleanUpVectors: The p-vectors have cracked symmetry
CleanUpVectors: The p-vectors have cracked symmetry
CleanUpVectors: The p-vectors have cracked symmetry
CleanUpVectors: The p-vectors have cracked symmetry
CleanUpVectors: The p-vectors have cracked symmetry
CleanUpVectors: The p-vectors have cracked symmetry
--------------------------
ATOM BASIS FOR ELEMENT Te
--------------------------
 NewGTO Te
 S 10
    1        396.479546590000        -0.002737685002
    2         21.919773309000         0.137400944602
    3         18.061271390000        -0.376744586462
    4          8.140346324100         0.786630658566
    5          2.070599879800        -0.824112477623
    6          0.977151850900        -0.422065919738
    7         11.263563841000         0.007260133966
    8          1.612269606200        -0.167996135947
    9          0.250954017000         0.123800693058
   10          0.097478452600        -0.053307115605
 P 17
    1         17.479502221000        -0.054505614195
    2         10.433943171000         0.194995614669
    3          1.362302476300        -0.372718226540
    4          0.592396162600        -0.072325067241
    5         17.479502221000        -0.046602336372
    6         10.433943171000         0.166721380177
    7          1.362302476300        -0.318674331478
    8          0.592396162600        -0.061837980573
    9         17.479502221000         0.001424861944
   10         10.433943171000        -0.005097490135
   11          1.362302476300         0.009743436980
   12          0.592396162600         0.001890690298
   13          2.796173767000        -0.466490836604
   14          2.796173767000        -0.398849975424
   15          2.796173767000         0.012194799568
   16          0.297664010300         0.078957970800
   17          0.297664010300         0.067509117526
 S 10
    1        396.479546590000        -0.001170012318
    2         21.919773309000         0.058721437108
    3         18.061271390000        -0.161010418114
    4          8.140346324100         0.336184608322
    5          2.070599879800        -0.352203321198
    6          0.977151850900        -0.180379526742
    7         11.263563841000         0.022360495813
    8          1.612269606200        -0.517411512254
    9          0.250954017000         1.703852483110
   10          0.097478452600        -0.458455099466
 S 10
    1        396.479546590000        -0.000416628729
    2         21.919773309000         0.020910068479
    3         18.061271390000        -0.057334068006
    4          8.140346324100         0.119711702025
    5          2.070599879800        -0.125415792382
    6          0.977151850900        -0.064231198045
    7         11.263563841000         0.011394188552
    8          1.612269606200        -0.263656243523
    9          0.250954017000         1.794036483611
   10          0.097478452600        -2.035388891373
 P 17
    1         17.479502221000        -0.016390302090
    2         10.433943171000         0.058636840955
    3          1.362302476300        -0.112079542956
    4          0.592396162600        -0.021748763284
    5         17.479502221000        -0.014013719184
    6         10.433943171000         0.050134538001
    7          1.362302476300        -0.095828083743
    8          0.592396162600        -0.018595207067
    9         17.479502221000         0.000428468114
   10         10.433943171000        -0.001532858669
   11          1.362302476300         0.002929934427
   12          0.592396162600         0.000568546664
   13          2.796173767000        -0.273126199018
   14          2.796173767000        -0.233523081747
   15          2.796173767000         0.007139945724
   16          0.297664010300         0.943681582834
   17          0.297664010300         0.806848380724
 P 17
    1         17.479502221000        -0.001599695633
    2         10.433943171000         0.005722963366
    3          1.362302476300        -0.010938978089
    4          0.592396162600        -0.002122682148
    5         17.479502221000         0.002065349413
    6         10.433943171000        -0.007388854969
    7          1.362302476300         0.014123194130
    8          0.592396162600         0.002740571543
    9         17.479502221000         0.006356907140
   10         10.433943171000        -0.022742042881
   11          1.362302476300         0.043469561635
   12          0.592396162600         0.008435162931
   13          2.796173767000        -0.030220980638
   14          2.796173767000         0.039188492829
   15          2.796173767000         0.125669868781
   16          0.297664010300         0.194106373894
   17          0.297664010300        -0.251604871277
 P 17
    1         17.479502221000        -0.008379235526
    2         10.433943171000         0.029976988721
    3          1.362302476300        -0.057298571006
    4          0.592396162600        -0.011118648635
    5         17.479502221000         0.003439986638
    6         10.433943171000        -0.012306664531
    7          1.362302476300         0.023523186337
    8          0.592396162600         0.004564617216
    9         17.479502221000        -0.208022935553
   10         10.433943171000         0.744208844959
   11          1.362302476300        -1.422494558860
   12          0.592396162600        -0.276031616631
   13          2.796173767000         0.044200723299
   14          2.796173767000        -0.018112902392
   15          2.796173767000         1.098410977657
   16          0.297664010300         0.038455405811
   17          0.297664010300        -0.016072968220
 S 10
    1        396.479546590000        -0.007785646370
    2         21.919773309000         0.390751735401
    3         18.061271390000        -1.071416221985
    4          8.140346324100         2.237082836976
    5          2.070599879800        -2.343676615389
    6          0.977151850900        -1.200304634501
    7         11.263563841000        -0.108267103515
    8          1.612269606200         2.505250609178
    9          0.250954017000         0.586318726328
   10          0.097478452600        -0.266601181229
 end
  // -----------------------------------------------
  // The basis set
  // -----------------------------------------------
  BAS[ATNO] = new BFNGauss[NSH];
  // Basis function   1 L = s
  InitBFNGauss(BAS[ATNO][  0]);
  BAS[ATNO][  0].l  = 0;
  BAS[ATNO][  0].ng = 10;
  BAS[ATNO][  0].a[  0] =       396.479546590000;     BAS[ATNO][  0].d[  0] =         0.002737685002;
  BAS[ATNO][  0].a[  1] =        21.919773309000;     BAS[ATNO][  0].d[  1] =        -0.137400944602;
  BAS[ATNO][  0].a[  2] =        18.061271390000;     BAS[ATNO][  0].d[  2] =         0.376744586462;
  BAS[ATNO][  0].a[  3] =         8.140346324100;     BAS[ATNO][  0].d[  3] =        -0.786630658566;
  BAS[ATNO][  0].a[  4] =         2.070599879800;     BAS[ATNO][  0].d[  4] =         0.824112477623;
  BAS[ATNO][  0].a[  5] =         0.977151850900;     BAS[ATNO][  0].d[  5] =         0.422065919738;
  BAS[ATNO][  0].a[  6] =        11.263563841000;     BAS[ATNO][  0].d[  6] =        -0.007260133966;
  BAS[ATNO][  0].a[  7] =         1.612269606200;     BAS[ATNO][  0].d[  7] =         0.167996135947;
  BAS[ATNO][  0].a[  8] =         0.250954017000;     BAS[ATNO][  0].d[  8] =        -0.123800693058;
  BAS[ATNO][  0].a[  9] =         0.097478452600;     BAS[ATNO][  0].d[  9] =         0.053307115605;

FINAL SINGLE POINT ENERGY      -212.105626957889

DIPOLE MOMENT
-------------
                                X             Y             Z
Electronic contribution:     -0.00000      -0.00000      -0.00000
Nuclear contribution   :      0.00000       0.00000       0.00000
                        -----------------------------------------
Total Dipole Moment    :     -0.00000      -0.00000      -0.00000
                        -----------------------------------------
Magnitude (a.u.)       :      0.00000
Magnitude (Debye)      :      0.00000

Rotational constants in cm-1:     0.000000     0.000000     0.000000
Rotational constants in MHz :     0.000000     0.000000     0.000000

                             ****ORCA TERMINATED NORMALLY****
TOTAL RUN TIME: 0 days 0 hours 0 minutes 1 seconds 98 msec
