                         Program Version 4.2.0 -  RELEASE  -
|  1> #
|  2> # 53_I CCSD(T)/Def2-SVP
|  3> #
|  4> ! CCSD(T) Def2-SVP tightscf
|  5>
|  6> *xyz 0 2
|  7>  I 0.0 0.0 0.0
|  8> *
|  9>
| 10> %maxcore 5000
| 11>
| 12> %pal
| 13> nprocs 24
| 14> end
| 15>
| 16>
| 17>                          ****END OF INPUT****

CARTESIAN COORDINATES (ANGSTROEM)
---------------------------------
  I      0.000000    0.000000    0.000000

 Total Charge           Charge          ....    0
 Multiplicity           Mult            ....    2
 Number of Electrons    NEL             ....   25
 Basis Dimension        Dim             ....   26

ORBITAL ENERGIES
----------------
                 SPIN UP ORBITALS
  NO   OCC          E(Eh)            E(eV)
   0   1.0000      -7.761536      -211.2021
   1   1.0000      -5.626242      -153.0978
   2   1.0000      -5.601074      -152.4130
   3   1.0000      -5.601074      -152.4130
   4   1.0000      -2.316140       -63.0254
   5   1.0000      -2.309299       -62.8392
   6   1.0000      -2.309299       -62.8392
   7   1.0000      -2.289168       -62.2914
   8   1.0000      -2.289168       -62.2914
   9   1.0000      -0.920867       -25.0581
  10   1.0000      -0.455308       -12.3896
  11   1.0000      -0.397803       -10.8248
  12   1.0000      -0.397803       -10.8248
  13   0.0000       0.396312        10.7842
  14   0.0000       0.518852        14.1187
  15   0.0000       0.551754        15.0140
  16   0.0000       0.555499        15.1159
  17   0.0000       0.555499        15.1159

                 SPIN DOWN ORBITALS
  NO   OCC          E(Eh)            E(eV)
   0   1.0000      -7.753416      -210.9812
   1   1.0000      -5.605267      -152.5271
   2   1.0000      -5.599402      -152.3675
   3   1.0000      -5.599402      -152.3675
   4   1.0000      -2.304247       -62.7018
   5   1.0000      -2.300164       -62.5906
   6   1.0000      -2.300164       -62.5906
   7   1.0000      -2.288118       -62.2628
   8   1.0000      -2.288118       -62.2628
   9   1.0000      -0.831103       -22.6155
  10   1.0000      -0.378281       -10.2936
  11   1.0000      -0.378281       -10.2936
  12   0.0000      -0.050388        -1.3711
  13   0.0000       0.414633        11.2827
  14   0.0000       0.562516        15.3068
  15   0.0000       0.562516        15.3068
  16   0.0000       0.582589        15.8531

E(0)                                       ...   -296.649606476
E(0)                                       ...   -296.649606476
E(CORR)                                    ...     -0.108304395
E(TOT)                                     ...   -296.757910870
E(CCSD(T))                                 ...   -296.759114824

MULLIKEN ATOMIC CHARGES AND SPIN DENSITIES
------------------------------------------
   0 I :    0.000000    1.000000
Sum of atomic charges       :    0.0000000

LOEWDIN ATOMIC CHARGES AND SPIN DENSITIES
-----------------------------------------
   0 I :    0.000000    1.000000

FINAL SINGLE POINT ENERGY      -296.759114824000

DIPOLE MOMENT
-------------
                                X             Y             Z
Electronic contribution:     -0.00000      -0.00000      -0.00000
Nuclear contribution   :      0.00000       0.00000       0.00000
                        -----------------------------------------
Total Dipole Moment    :     -0.00000      -0.00000      -0.00000
                        -----------------------------------------
Magnitude (a.u.)       :      0.00000
Magnitude (Debye)      :      0.00000

Rotational constants in cm-1:     0.000000     0.000000     0.000000
Rotational constants in MHz :     0.000000     0.000000     0.000000

                             ****ORCA TERMINATED NORMALLY****
TOTAL RUN TIME: 0 days 0 hours 0 minutes 9 seconds 347 msec
