                         Program Version 4.2.0 -  RELEASE  -
|  1> # input to generate an atomic fitting density for I
|  2> # this file is use internally by ORCA
|  3> #
|  4> # atomic ground state (S=2): 1s2 2s2 2p6 3s2 3p6 4s2 3d10 4p6 5s2 4d10 5p5
|  5> #
|  6> ! RHF AllowRHF def2-SVP def2/J  NoMulliken NoLoewdin NoMayer NoPrintMOs
|  7>
|  8> %output print[p_atomdensfit] 2 end
|  9>
| 10> %scf
| 11>   guess hcore
| 12>   maxiter 1000
| 13>   maxdisk 500000
| 14>   SCFMode Conventional
| 15>   lshift 1.000000
| 16>   hftyp rohf
| 17>   rohf_case sahf
| 18>   rohf_numop   2
| 19>   rohf_norb[1] 3
| 20>   rohf_nel[1]  5
| 21> end
| 22>
| 23> %basis
| 24>   NewECP 53
| 25>     N_core 28
| 26>     lmax f
| 27>     s 7
| 28>       1      40.0158350000     49.9942930000  2
| 29>       2      17.4297470000    281.0253170000  2
| 30>       3       9.0054840000     61.5733260000  2
| 31>       4      19.4586090000     21.8420400000  2
| 32>       5      19.3492600000     28.4681910000  2
| 33>       6       4.8237670000      0.2437130000  2
| 34>       7       4.8843150000      0.3208040000  2
| 35>     p 8
| 36>       1      15.3554660000     67.4428410000  2
| 37>       2      14.9718330000    134.8811370000  2
| 38>       3       8.9601640000     14.6750510000  2
| 39>       4       8.2590960000     29.3756660000  2
| 40>       5      19.4586090000     21.8420400000  2
| 41>       6      19.3492600000     28.4681910000  2
| 42>       7       4.8237670000      0.2437130000  2
| 43>       8       4.8843150000      0.3208040000  2
| 44>     d 10
| 45>       1      15.0689080000     35.4395290000  2
| 46>       2      14.5553220000     53.1760570000  2
| 47>       3       6.7186470000      9.0671950000  2
| 48>       4       6.4563930000     13.2069370000  2
| 49>       5       1.1917790000      0.0893350000  2
| 50>       6       1.2911570000      0.0523800000  2
| 51>       7      19.4586090000     21.8420400000  2
| 52>       8      19.3492600000     28.4681910000  2
| 53>       9       4.8237670000      0.2437130000  2
| 54>      10       4.8843150000      0.3208040000  2
| 55>     f 4
| 56>       1      19.4586090000    -21.8420400000  2
| 57>       2      19.3492600000    -28.4681910000  2
| 58>       3       4.8237670000     -0.2437130000  2
| 59>       4       4.8843150000     -0.3208040000  2
| 60>   end
| 61>   NewGTO 53
| 62>     s 6
| 63>      1     445.9048917600      0.0022025754
| 64>      2      23.3368424120     -0.1647691779
| 65>      3      19.5834461040      0.4005236426
| 66>      4       8.5112089186     -0.8303440534
| 67>      5       2.1996161861      0.9103490390
| 68>      6       1.0668970454      0.4634503367
| 69>     s 2
| 70>      1      11.7205475720     -0.0469729845
| 71>      2       1.7625986449      1.0252380966
| 72>     s 1
| 73>      1       0.2869747632      1.0000000000
| 74>     s 1
| 75>      1       0.1122760961      1.0000000000
| 76>     p 4
| 77>      1      20.4990272540      0.0845621086
| 78>      2      10.5587545760     -0.4205167918
| 79>      3       1.5015895485      0.9157047730
| 80>      4       0.6459717310      0.1839785228
| 81>     p 1
| 82>      1       3.0288656771      1.0000000000
| 83>     p 1
| 84>      1       0.3450659184      1.0000000000
| 85>     p 1
| 86>      1       0.1113451381      1.0000000000
| 87>   end
| 88>   NewAuxGTO 53
| 89>     S 1
| 90>      1 1310.72 1.0
| 91>     S 1
| 92>      1  655.36 1.0
| 93>     S 1
| 94>      1  327.68 1.0
| 95>     S 1
| 96>      1  163.84 1.0
| 97>     S 1
| 98>      1   81.82 1.0
| 99>     S 1
|100>      1   40.96 1.0
|101>     S 1
|102>      1   20.48 1.0
|103>     S 1
|104>      1   10.24 1.0
|105>     S 1
|106>      1    5.12 1.0
|107>     S 1
|108>      1    2.56 1.0
|109>     S 1
|110>      1    1.28 1.0
|111>     S 1
|112>      1    0.64 1.0
|113>     S 1
|114>      1    0.32 1.0
|115>     S 1
|116>      1    0.16 1.0
|117>     S 1
|118>      1    0.08 1.0
|119>     S 1
|120>      1    0.04 1.0
|121>     S 1
|122>      1    0.02 1.0
|123>     S 1
|124>      1    0.01 1.0
|125>   end
|126> end
|127>
|128> * xyz 0 2
|129> 53  0.0 0.0 0.0
|130> *
|131>
|132>
|133>                          ****END OF INPUT****

CARTESIAN COORDINATES (ANGSTROEM)
---------------------------------
  I      0.000000    0.000000    0.000000

 Total Charge           Charge          ....    0
 Multiplicity           Mult            ....    2
 Number of Electrons    NEL             ....   25
 Basis Dimension        Dim             ....   16

ORBITAL ENERGIES
----------------

  NO   OCC          E(Eh)            E(eV)
   0   2.0000     -12.409572      -337.6816
   1   2.0000     -10.014953      -272.5207
   2   2.0000     -10.013276      -272.4751
   3   2.0000      -9.930626      -270.2261
   4   2.0000      -2.999156       -81.6112
   5   2.0000      -2.128411       -57.9170
   6   2.0000      -2.122908       -57.7673
   7   2.0000      -2.113490       -57.5110
   8   2.0000      -0.498652       -13.5690
   9   2.0000      -0.249283        -6.7833
  10   1.6667      -0.263118        -7.1598
  11   1.6667      -0.258940        -7.0461
  12   1.6667      13.609640       370.3371
  13   0.0000      14.491344       394.3295
  14   0.0000      14.492423       394.3589
  15   0.0000      50.905457      1385.2079
CleanUpVectors: The p-vectors have cracked symmetry
CleanUpVectors: The p-vectors have cracked symmetry
CleanUpVectors: The p-vectors have cracked symmetry
CleanUpVectors: The p-vectors have cracked symmetry
CleanUpVectors: The p-vectors have cracked symmetry
CleanUpVectors: The p-vectors have cracked symmetry
CleanUpVectors: The p-vectors have cracked symmetry
CleanUpVectors: The p-vectors have cracked symmetry
CleanUpVectors: The p-vectors have cracked symmetry
CleanUpVectors: The p-vectors have cracked symmetry
CleanUpVectors: The p-vectors have cracked symmetry
--------------------------
ATOM BASIS FOR ELEMENT I
--------------------------
 NewGTO I
 S 10
    1        445.904891760000        -0.002061825378
    2         23.336842412000         0.154240019473
    3         19.583446104000        -0.374929190164
    4          8.511208918600         0.777283012503
    5          2.199616186100        -0.852175481435
    6          1.066897045400        -0.433834712708
    7         11.720547572000         0.006139742973
    8          1.762598644900        -0.134006779978
    9          0.286974763200         0.119335003914
   10          0.112276096100        -0.050563031138
 P 17
    1         20.499027254000        -0.002783583139
    2         10.558754576000         0.013842410869
    3          1.501589548500        -0.030142819383
    4          0.645971731000        -0.006056134626
    5         20.499027254000         0.004924047304
    6         10.558754576000        -0.024486671505
    7          1.501589548500         0.053321442589
    8          0.645971731000         0.010713060072
    9         20.499027254000        -0.046417612302
   10         10.558754576000         0.230828981579
   11          1.501589548500        -0.502646277866
   12          0.645971731000        -0.100989011327
   13          3.028865677100        -0.035551066678
   14          3.028865677100         0.062888415871
   15          3.028865677100        -0.592831450603
   16          0.345065918400         0.006173188645
   17          0.345065918400        -0.010920123952
 S 10
    1        445.904891760000        -0.000933463810
    2         23.336842412000         0.069830101894
    3         19.583446104000        -0.169744166537
    4          8.511208918600         0.351904467783
    5          2.199616186100        -0.385811029481
    6          1.066897045400        -0.196412852495
    7         11.720547572000         0.024277463436
    8          1.762598644900        -0.529882882008
    9          0.286974763200         1.718710999535
   10          0.112276096100        -0.440508381089
 S 10
    1        445.904891760000        -0.000345841472
    2         23.336842412000         0.025871538865
    3         19.583446104000        -0.062888964537
    4          8.511208918600         0.130378015612
    5          2.199616186100        -0.142940147200
    6          1.066897045400        -0.072769516427
    7         11.720547572000         0.013104730030
    8          1.762598644900        -0.286025438135
    9          0.286974763200         1.869033020442
   10          0.112276096100        -2.068765671912
 P 17
    1         20.499027254000         0.000911811973
    2         10.558754576000        -0.004534326924
    3          1.501589548500         0.009873814524
    4          0.645971731000         0.001983794192
    5         20.499027254000        -0.001612958933
    6         10.558754576000         0.008021043078
    7          1.501589548500        -0.017466383208
    8          0.645971731000        -0.003509252628
    9         20.499027254000         0.015204911283
   10         10.558754576000        -0.075612122477
   11          1.501589548500         0.164650693621
   12          0.645971731000         0.033080739867
   13          3.028865677100         0.022633634134
   14          3.028865677100        -0.040037994049
   15          3.028865677100         0.377426935671
   16          0.345065918400        -0.073766207611
   17          0.345065918400         0.130489472609
 P 17
    1         20.499027254000        -0.000825110353
    2         10.558754576000         0.004103170605
    3          1.501589548500        -0.008934941436
    4          0.645971731000        -0.001795160815
    5         20.499027254000         0.005177943378
    6         10.558754576000        -0.025749264929
    7          1.501589548500         0.056070828221
    8          0.645971731000         0.011265451980
    9         20.499027254000         0.000598764133
   10         10.558754576000        -0.002977579161
   11          1.501589548500         0.006483887213
   12          0.645971731000         0.001302708063
   13          3.028865677100        -0.026517233938
   14          3.028865677100         0.147412083472
   15          3.028865677100         0.017227878770
   16          0.345065918400         0.155166547283
   17          0.345065918400        -0.882375437336
 P 17
    1         20.499027254000        -0.137282432380
    2         10.558754576000         0.682688369420
    3          1.501589548500        -1.486601749419
    4          0.645971731000        -0.298680100742
    5         20.499027254000        -0.003004430753
    6         10.558754576000         0.014940658439
    7          1.501589548500        -0.032534330404
    8          0.645971731000        -0.006536624275
    9         20.499027254000         0.007913873348
   10         10.558754576000        -0.039354702549
   11          1.501589548500         0.085697621753
   12          0.645971731000         0.017217909442
   13          3.028865677100         1.119056044934
   14          3.028865677100         0.024444684296
   15          3.028865677100        -0.064514709129
   16          0.345065918400         1.021590649538
   17          0.345065918400         0.022520091533
 S 10
    1        445.904891760000        -0.005766170982
    2         23.336842412000         0.431352884616
    3         19.583446104000        -1.048539725659
    4          8.511208918600         2.173776110451
    5          2.199616186100        -2.383222936381
    6          1.066897045400        -1.213276913556
    7         11.720547572000        -0.115976325620
    8          1.762598644900         2.531313447399
    9          0.286974763200         0.643131164763
   10          0.112276096100        -0.289854272566
 end
  // -----------------------------------------------
  // The basis set
  // -----------------------------------------------
  BAS[ATNO] = new BFNGauss[NSH];
  // Basis function   1 L = s
  InitBFNGauss(BAS[ATNO][  0]);
  BAS[ATNO][  0].l  = 0;
  BAS[ATNO][  0].ng = 10;
  BAS[ATNO][  0].a[  0] =       445.904891760000;     BAS[ATNO][  0].d[  0] =         0.002061825378;
  BAS[ATNO][  0].a[  1] =        23.336842412000;     BAS[ATNO][  0].d[  1] =        -0.154240019473;
  BAS[ATNO][  0].a[  2] =        19.583446104000;     BAS[ATNO][  0].d[  2] =         0.374929190164;
  BAS[ATNO][  0].a[  3] =         8.511208918600;     BAS[ATNO][  0].d[  3] =        -0.777283012503;
  BAS[ATNO][  0].a[  4] =         2.199616186100;     BAS[ATNO][  0].d[  4] =         0.852175481435;
  BAS[ATNO][  0].a[  5] =         1.066897045400;     BAS[ATNO][  0].d[  5] =         0.433834712708;
  BAS[ATNO][  0].a[  6] =        11.720547572000;     BAS[ATNO][  0].d[  6] =        -0.006139742973;
  BAS[ATNO][  0].a[  7] =         1.762598644900;     BAS[ATNO][  0].d[  7] =         0.134006779978;
  BAS[ATNO][  0].a[  8] =         0.286974763200;     BAS[ATNO][  0].d[  8] =        -0.119335003914;
  BAS[ATNO][  0].a[  9] =         0.112276096100;     BAS[ATNO][  0].d[  9] =         0.050563031138;

FINAL SINGLE POINT ENERGY      -231.800932569508

DIPOLE MOMENT
-------------
                                X             Y             Z
Electronic contribution:      0.00000      -0.00000       0.00000
Nuclear contribution   :      0.00000       0.00000       0.00000
                        -----------------------------------------
Total Dipole Moment    :      0.00000      -0.00000       0.00000
                        -----------------------------------------
Magnitude (a.u.)       :      0.00000
Magnitude (Debye)      :      0.00000

Rotational constants in cm-1:     0.000000     0.000000     0.000000
Rotational constants in MHz :     0.000000     0.000000     0.000000

                             ****ORCA TERMINATED NORMALLY****
TOTAL RUN TIME: 0 days 0 hours 0 minutes 1 seconds 96 msec
