                         Program Version 4.2.0 -  RELEASE  -
|  1> # input to generate an atomic fitting density for Xe
|  2> # this file is use internally by ORCA
|  3> #
|  4> # atomic ground state (S=1): 1s2 2s2 2p6 3s2 3p6 4s2 3d10 4p6 5s2 4d10 5p6
|  5> #
|  6> ! RHF AllowRHF def2-SVP def2/J  NoMulliken NoLoewdin NoMayer NoPrintMOs
|  7>
|  8> %output print[p_atomdensfit] 2 end
|  9>
| 10> %scf
| 11>   guess hcore
| 12>   maxiter 1000
| 13>   maxdisk 500000
| 14>   SCFMode Conventional
| 15>   lshift 1.000000
| 16>   hftyp rohf
| 17>   rohf_case sahf
| 18>   rohf_numop   2
| 19>   rohf_norb[1] 3
| 20>   rohf_nel[1]  6
| 21> end
| 22>
| 23> %basis
| 24>   NewECP 54
| 25>     N_core 28
| 26>     lmax f
| 27>     s 7
| 28>       1      40.0051840000     49.9979620000  2
| 29>       2      17.8122140000    281.0133030000  2
| 30>       3       9.3041500000     61.5382550000  2
| 31>       4      20.8815570000     23.0892950000  2
| 32>       5      20.7834430000     30.0744750000  2
| 33>       6       5.2533890000      0.2882270000  2
| 34>       7       5.3611880000      0.3869240000  2
| 35>     p 8
| 36>       1      15.7017720000     67.4391420000  2
| 37>       2      15.2586080000    134.8747110000  2
| 38>       3       9.2921840000     14.6633000000  2
| 39>       4       8.5590030000     29.3547300000  2
| 40>       5      20.8815570000     23.0892950000  2
| 41>       6      20.7834430000     30.0744750000  2
| 42>       7       5.2533890000      0.2882270000  2
| 43>       8       5.3611880000      0.3869240000  2
| 44>     d 10
| 45>       1      15.1856000000     35.4369080000  2
| 46>       2      14.2845000000     53.1957720000  2
| 47>       3       7.1218890000      9.0462320000  2
| 48>       4       6.9919630000     13.2236810000  2
| 49>       5       0.6239460000      0.0848530000  2
| 50>       6       0.6472840000      0.0441550000  2
| 51>       7      20.8815570000     23.0892950000  2
| 52>       8      20.7834430000     30.0744750000  2
| 53>       9       5.2533890000      0.2882270000  2
| 54>      10       5.3611880000      0.3869240000  2
| 55>     f 4
| 56>       1      20.8815570000    -23.0892950000  2
| 57>       2      20.7834430000    -30.0744750000  2
| 58>       3       5.2533890000     -0.2882270000  2
| 59>       4       5.3611880000     -0.3869240000  2
| 60>   end
| 61>   NewGTO 54
| 62>     s 5
| 63>      1    6420.2481656000      0.0005803743
| 64>      2     983.5453066400      0.0037590265
| 65>      3     219.4388136400      0.0106482436
| 66>      4      23.0125878070     -0.3399766589
| 67>      5      18.0483244900      1.3305328819
| 68>     s 2
| 69>      1      11.7525501630      0.6426392401
| 70>      2       6.2390917199      0.3743679621
| 71>     s 1
| 72>      1       2.6257211320      1.0000000000
| 73>     s 1
| 74>      1       1.2905042943      1.0000000000
| 75>     s 1
| 76>      1       0.3620418506      1.0000000000
| 77>     s 1
| 78>      1       0.1406988809      1.0000000000
| 79>     p 3
| 80>      1     193.8143254500      0.0040702352
| 81>      2      21.7252280860      0.2448817432
| 82>      3       9.8891605641     -1.1935854566
| 83>     p 4
| 84>      1      13.9606838260     -0.0377633548
| 85>      2       4.0928947097      0.2717857050
| 86>      3       2.2546815460      0.5382425559
| 87>      4       1.1546596184      0.2635338256
| 88>     p 1
| 89>      1       0.5232192313      1.0000000000
| 90>     p 1
| 91>      1       0.2194556980      1.0000000000
| 92>     p 1
| 93>      1       0.0861589968      1.0000000000
| 94>   end
| 95>   NewAuxGTO 54
| 96>     S 1
| 97>      1 1310.72 1.0
| 98>     S 1
| 99>      1  655.36 1.0
|100>     S 1
|101>      1  327.68 1.0
|102>     S 1
|103>      1  163.84 1.0
|104>     S 1
|105>      1   81.82 1.0
|106>     S 1
|107>      1   40.96 1.0
|108>     S 1
|109>      1   20.48 1.0
|110>     S 1
|111>      1   10.24 1.0
|112>     S 1
|113>      1    5.12 1.0
|114>     S 1
|115>      1    2.56 1.0
|116>     S 1
|117>      1    1.28 1.0
|118>     S 1
|119>      1    0.64 1.0
|120>     S 1
|121>      1    0.32 1.0
|122>     S 1
|123>      1    0.16 1.0
|124>     S 1
|125>      1    0.08 1.0
|126>     S 1
|127>      1    0.04 1.0
|128>     S 1
|129>      1    0.02 1.0
|130>     S 1
|131>      1    0.01 1.0
|132>   end
|133> end
|134>
|135> * xyz 0 1
|136> 54  0.0 0.0 0.0
|137> *
|138>
|139>
|140>                          ****END OF INPUT****

CARTESIAN COORDINATES (ANGSTROEM)
---------------------------------
  Xe     0.000000    0.000000    0.000000

 Total Charge           Charge          ....    0
 Multiplicity           Mult            ....    1
 Number of Electrons    NEL             ....   26
 Basis Dimension        Dim             ....   21

ORBITAL ENERGIES
----------------

  NO   OCC          E(Eh)            E(eV)
   0   2.0000     -13.996330      -380.8595
   1   2.0000     -11.345111      -308.7162
   2   2.0000     -11.343689      -308.6775
   3   2.0000     -11.332217      -308.3653
   4   2.0000      -3.864867      -105.1684
   5   2.0000      -2.705060       -73.6084
   6   2.0000      -2.674950       -72.7891
   7   2.0000      -2.592257       -70.5389
   8   2.0000      -0.412139       -11.2149
   9   2.0000      -0.334143        -9.0925
  10   2.0000      -0.778393       -21.1812
  11   2.0000      -0.526365       -14.3231
  12   2.0000       0.167980         4.5710
  13   0.0000       0.376310        10.2399
  14   0.0000       0.376311        10.2400
  15   0.0000       1.475549        40.1517
  16   0.0000      27.902481       759.2651
  17   0.0000      27.902481       759.2651

CleanUpVectors: The p-vectors have cracked symmetry
CleanUpVectors: The p-vectors have cracked symmetry
CleanUpVectors: The p-vectors have cracked symmetry
CleanUpVectors: The p-vectors have cracked symmetry
CleanUpVectors: The p-vectors have cracked symmetry
CleanUpVectors: The p-vectors have cracked symmetry
CleanUpVectors: The p-vectors have cracked symmetry
CleanUpVectors: The p-vectors have cracked symmetry
CleanUpVectors: The p-vectors have cracked symmetry
CleanUpVectors: The p-vectors have cracked symmetry
CleanUpVectors: The p-vectors have cracked symmetry
CleanUpVectors: The p-vectors have cracked symmetry
CleanUpVectors: The p-vectors have cracked symmetry
CleanUpVectors: The p-vectors have cracked symmetry
CleanUpVectors: The p-vectors have cracked symmetry
--------------------------
ATOM BASIS FOR ELEMENT Xe
--------------------------
 NewGTO Xe
 S 11
    1       6420.248165600000         0.000290083357
    2        983.545306640000         0.001878840996
    3        219.438813640000         0.005322217497
    4         23.012587807000        -0.169927528944
    5         18.048324490000         0.665028492049
    6         11.752550163000        -0.792599203037
    7          6.239091719900        -0.461726782132
    8          2.625721132000         1.250164528869
    9          1.290504294300         0.291759909280
   10          0.362041850600         0.013056785110
   11          0.140698880900        -0.012775361127
 P 21
    1        193.814325450000         0.000370455230
    2         21.725228086000         0.022288078708
    3          9.889160564100        -0.108634993582
    4        193.814325450000        -0.000629168419
    5         21.725228086000        -0.037853306198
    6          9.889160564100         0.184501936208
    7        193.814325450000        -0.000224278484
    8         21.725228086000        -0.013493496934
    9          9.889160564100         0.065769058518
   10         13.960683826000        -0.021670349314
   11          4.092894709700         0.155963134025
   12          2.254681546000         0.308868326550
   13          1.154659618400         0.151227826210
   14         13.960683826000         0.036804175845
   15          4.092894709700        -0.264882421913
   16          2.254681546000        -0.524571341172
   17          1.154659618400        -0.256840138008
   18         13.960683826000         0.013119515408
   19          4.092894709700        -0.094422139221
   20          2.254681546000        -0.186992960311
   21          1.154659618400        -0.091555321390
 S 11
    1       6420.248165600000         0.000240600283
    2        983.545306640000         0.001558344056
    3        219.438813640000         0.004414341616
    4         23.012587807000        -0.140940907288
    5         18.048324490000         0.551586429956
    6         11.752550163000        -0.698578051894
    7          6.239091719900        -0.406954983973
    8          2.625721132000         2.094694226834
    9          1.290504294300        -0.879492947051
   10          0.362041850600        -1.052787805494
   11          0.140698880900         0.121030928417
 P 21
    1        193.814325450000         0.000149348937
    2         21.725228086000         0.008985433608
    3          9.889160564100        -0.043796171717
    4        193.814325450000        -0.000253649098
    5         21.725228086000        -0.015260551353
    6          9.889160564100         0.074381911518
    7        193.814325450000        -0.000090417817
    8         21.725228086000        -0.005439900066
    9          9.889160564100         0.026514780234
   10         13.960683826000        -0.014941265884
   11          4.092894709700         0.107533414431
   12          2.254681546000         0.212958440282
   13          1.154659618400         0.104268515832
   14         13.960683826000         0.025375732020
   15          4.092894709700        -0.182631052073
   16          2.254681546000        -0.361681289508
   17          1.154659618400        -0.177086060601
   18         13.960683826000         0.009045639512
   19          4.092894709700        -0.065102147966
   20          2.254681546000        -0.128927849667
   21          1.154659618400        -0.063125535275
 S 11
    1       6420.248165600000         0.002284887991
    2        983.545306640000         0.014798991802
    3        219.438813640000         0.041921297906
    4         23.012587807000        -1.338461377697
    5         18.048324490000         5.238203351785
    6         11.752550163000        -4.144755403186
    7          6.239091719900        -2.414517410191
    8          2.625721132000         4.648563527032
    9          1.290504294300        -2.973202097385
   10          0.362041850600         0.942081706277
   11          0.140698880900        -0.336770971455
 S 11
    1       6420.248165600000         0.001854996230
    2        983.545306640000         0.012014625709
    3        219.438813640000         0.034033987607
    4         23.012587807000        -1.086635677223
    5         18.048324490000         4.252658120323
    6         11.752550163000        -1.972952518561
    7          6.239091719900        -1.149338801002
    8          2.625721132000         1.416765434484
    9          1.290504294300        -0.787343254411
   10          0.362041850600         0.227609082117
   11          0.140698880900        -0.079942249790
 P 21
    1        193.814325450000        -0.000045656022
    2         21.725228086000        -0.002746850146
    3          9.889160564100         0.013388504766
    4        193.814325450000         0.000077322042
    5         21.725228086000         0.004652005500
    6          9.889160564100        -0.022674479675
    7        193.814325450000        -0.000292324515
    8         21.725228086000        -0.017587420226
    9          9.889160564100         0.085723372947
   10         13.960683826000         0.004590068455
   11          4.092894709700        -0.033035067925
   12          2.254681546000        -0.065422423135
   13          1.154659618400        -0.032032066695
   14         13.960683826000        -0.007773639827
   15          4.092894709700         0.055947470560
   16          2.254681546000         0.110797988991
   17          1.154659618400         0.054248809551
   18         13.960683826000         0.029389103329
   19          4.092894709700        -0.211515587264
   20          2.254681546000        -0.418884025933
   21          1.154659618400        -0.205093611843
 P 21
    1        193.814325450000        -0.000022097856
    2         21.725228086000        -0.001329495998
    3          9.889160564100         0.006480136359
    4        193.814325450000         0.000037424446
    5         21.725228086000         0.002251605426
    6          9.889160564100        -0.010974617609
    7        193.814325450000        -0.000141487250
    8         21.725228086000        -0.008512442820
    9          9.889160564100         0.041490753117
   10         13.960683826000         0.002666147502
   11          4.092894709700        -0.019188464118
   12          2.254681546000        -0.038000703425
   13          1.154659618400        -0.018605869490
   14         13.960683826000        -0.004515329263
   15          4.092894709700         0.032497164340
   16          2.254681546000         0.064357162544
   17          1.154659618400         0.031510494784
   18         13.960683826000         0.017070700625
   19          4.092894709700        -0.122859116435
   20          2.254681546000        -0.243309355970
   21          1.154659618400        -0.119128903280
 P 21
    1        193.814325450000         0.000060842187
    2         21.725228086000         0.003660511014
    3          9.889160564100        -0.017841806633
    4        193.814325450000        -0.000103332173
    5         21.725228086000        -0.006216879730
    6          9.889160564100         0.030301880140
    7        193.814325450000        -0.000036834635
    8         21.725228086000        -0.002216120011
    9          9.889160564100         0.010801657082
   10         13.960683826000        -0.007297765175
   11          4.092894709700         0.052522564891
   12          2.254681546000         0.104015329171
   13          1.154659618400         0.050927889884
   14         13.960683826000         0.012394260860
   15          4.092894709700        -0.089202427688
   16          2.254681546000        -0.176655879202
   17          1.154659618400        -0.086494089236
   18         13.960683826000         0.004418160027
   19          4.092894709700        -0.031797830045
   20          2.254681546000        -0.062972205678
   21          1.154659618400        -0.030832393476
 P 21
    1        193.814325450000        -0.004614835262
    2         21.725228086000        -0.277647076379
    3          9.889160564100         1.353287950761
    4        193.814325450000        -0.002717922947
    5         21.725228086000        -0.163521191378
    6          9.889160564100         0.797023548281
    7        193.814325450000         0.000001846116
    8         21.725228086000         0.000111069770
    9          9.889160564100        -0.000541368500
   10         13.960683826000         0.030834772174
   11          4.092894709700        -0.221920174684
   12          2.254681546000        -0.439489199875
   13          1.154659618400        -0.215182298173
   14         13.960683826000         0.018160244104
   15          4.092894709700        -0.130700642803
   16          2.254681546000        -0.258838661290
   17          1.154659618400        -0.126732347480
   18         13.960683826000        -0.000012335124
   19          4.092894709700         0.000088776814
   20          2.254681546000         0.000175812996
   21          1.154659618400         0.000086081397
 end
  // -----------------------------------------------
  // The basis set
  // -----------------------------------------------
  BAS[ATNO] = new BFNGauss[NSH];
  // Basis function   1 L = s
  InitBFNGauss(BAS[ATNO][  0]);
  BAS[ATNO][  0].l  = 0;
  BAS[ATNO][  0].ng = 11;
  BAS[ATNO][  0].a[  0] =      6420.248165600000;     BAS[ATNO][  0].d[  0] =         0.000290083357;
  BAS[ATNO][  0].a[  1] =       983.545306640000;     BAS[ATNO][  0].d[  1] =         0.001878840996;
  BAS[ATNO][  0].a[  2] =       219.438813640000;     BAS[ATNO][  0].d[  2] =         0.005322217497;
  BAS[ATNO][  0].a[  3] =        23.012587807000;     BAS[ATNO][  0].d[  3] =        -0.169927528944;
  BAS[ATNO][  0].a[  4] =        18.048324490000;     BAS[ATNO][  0].d[  4] =         0.665028492049;
  BAS[ATNO][  0].a[  5] =        11.752550163000;     BAS[ATNO][  0].d[  5] =        -0.792599203037;
  BAS[ATNO][  0].a[  6] =         6.239091719900;     BAS[ATNO][  0].d[  6] =        -0.461726782132;
  BAS[ATNO][  0].a[  7] =         2.625721132000;     BAS[ATNO][  0].d[  7] =         1.250164528869;
  BAS[ATNO][  0].a[  8] =         1.290504294300;     BAS[ATNO][  0].d[  8] =         0.291759909280;
  BAS[ATNO][  0].a[  9] =         0.362041850600;     BAS[ATNO][  0].d[  9] =         0.013056785110;
  BAS[ATNO][  0].a[ 10] =         0.140698880900;     BAS[ATNO][  0].d[ 10] =        -0.012775361127;

FINAL SINGLE POINT ENERGY      -281.653971905773

DIPOLE MOMENT
-------------
                                X             Y             Z
Electronic contribution:      0.00000       0.00000       0.00000
Nuclear contribution   :      0.00000       0.00000       0.00000
                        -----------------------------------------
Total Dipole Moment    :      0.00000       0.00000       0.00000
                        -----------------------------------------
Magnitude (a.u.)       :      0.00000
Magnitude (Debye)      :      0.00000

Rotational constants in cm-1:     0.000000     0.000000     0.000000
Rotational constants in MHz :     0.000000     0.000000     0.000000

                             ****ORCA TERMINATED NORMALLY****
TOTAL RUN TIME: 0 days 0 hours 0 minutes 1 seconds 65 msec
