                         Program Version 4.2.0 -  RELEASE  -
|  1> #
|  2> # 56_Ba CCSD(T)/Def2-SVP
|  3> #
|  4> ! CCSD(T) Def2-SVP tightscf
|  5>
|  6> *xyz 0 1
|  7>  Ba 0.0 0.0 0.0
|  8> *
|  9>
| 10> %maxcore 5000
| 11>
| 12> %pal
| 13> nprocs 15
| 14> end
| 15>
| 16> %method
| 17> NewNCore Ba 46 end
| 18> end
| 19>
| 20>
| 21>                          ****END OF INPUT****

CARTESIAN COORDINATES (ANGSTROEM)
---------------------------------
  Ba     0.000000    0.000000    0.000000

 Total Charge           Charge          ....    0
 Multiplicity           Mult            ....    1
 Number of Electrons    NEL             ....   10
 Basis Dimension        Dim             ....   30

ORBITAL ENERGIES
----------------

  NO   OCC          E(Eh)            E(eV)
   0   2.0000      -1.628516       -44.3142
   1   2.0000      -0.913119       -24.8472
   2   2.0000      -0.913119       -24.8472
   3   2.0000      -0.913119       -24.8472
   4   2.0000      -0.162023        -4.4089
   5   0.0000       0.030599         0.8326
   6   0.0000       0.030599         0.8326
   7   0.0000       0.030599         0.8326
   8   0.0000       0.056156         1.5281
   9   0.0000       0.056156         1.5281

E(0)                                       ...    -25.070894686
E(0)                                       ...    -25.070894686
E(CORR)                                    ...     -0.119865720
E(TOT)                                     ...    -25.190760406
E(CCSD(T))                                 ...    -25.193970463

MULLIKEN ATOMIC CHARGES
-----------------------
   0 Ba:   -0.000000
Sum of atomic charges:   -0.0000000

LOEWDIN ATOMIC CHARGES
----------------------
   0 Ba:    0.000000

FINAL SINGLE POINT ENERGY       -25.193970462734

DIPOLE MOMENT
-------------
                                X             Y             Z
Electronic contribution:      0.00000      -0.00000       0.00000
Nuclear contribution   :      0.00000       0.00000       0.00000
                        -----------------------------------------
Total Dipole Moment    :      0.00000      -0.00000       0.00000
                        -----------------------------------------
Magnitude (a.u.)       :      0.00000
Magnitude (Debye)      :      0.00000

Rotational constants in cm-1:     0.000000     0.000000     0.000000
Rotational constants in MHz :     0.000000     0.000000     0.000000

                             ****ORCA TERMINATED NORMALLY****
TOTAL RUN TIME: 0 days 0 hours 0 minutes 3 seconds 636 msec
