                         Program Version 4.2.0 -  RELEASE  -
|  1> # input to generate an atomic fitting density for Ba
|  2> # this file is use internally by ORCA
|  3> #
|  4> # atomic ground state (S=1): 1s2 2s2 2p6 3s2 3p6 4s2 3d10 4p6 5s2 4d10 5p6 6s2
|  5> #
|  6> ! RHF AllowRHF def2-SVP def2/J  NoMulliken NoLoewdin NoMayer NoPrintMOs
|  7>
|  8> %output print[p_atomdensfit] 2 end
|  9>
| 10> %scf
| 11>   guess hcore
| 12>   maxiter 1000
| 13>   maxdisk 500000
| 14>   SCFMode Conventional
| 15>   lshift 1.000000
| 16>   hftyp rohf
| 17>   rohf_case sahf
| 18>   rohf_numop   2
| 19>   rohf_norb[1] 1
| 20>   rohf_nel[1]  2
| 21> end
| 22>
| 23> %basis
| 24>   NewECP 56
| 25>     N_core 46
| 26>     lmax f
| 27>     s 3
| 28>       1       9.5269860000    427.8458160000  2
| 29>       2       4.4875100000    204.4175300000  2
| 30>       3       3.5894650000     33.4731740000  2
| 31>     p 3
| 32>       1       8.3159300000    293.6058640000  2
| 33>       2       4.2922170000    294.1933160000  2
| 34>       3       3.5894650000     33.4731740000  2
| 35>     d 3
| 36>       1       5.9161080000    112.5504020000  2
| 37>       2       2.8748420000    181.7826210000  2
| 38>       3       3.5894650000     33.4731740000  2
| 39>     f 1
| 40>       1       3.5894650000    -33.4731740000  2
| 41>   end
| 42>   NewGTO 56
| 43>     s 3
| 44>      1       2.3961900000    -17.1242195547
| 45>      2       2.2433050000     19.2091187855
| 46>      3       0.7174020000     -1.6405543057
| 47>     s 1
| 48>      1       0.2742007355      1.0000000000
| 49>     s 1
| 50>      1       0.0409332642      1.0000000000
| 51>     s 1
| 52>      1       0.0180601564      1.0000000000
| 53>     p 4
| 54>      1       2.9267420000      0.9499021906
| 55>      2       2.5207180000     -1.2743329980
| 56>      3       0.6757818085      0.4158392502
| 57>      4       0.3198584453      0.7740710302
| 58>     p 1
| 59>      1       0.1322179245      1.0000000000
| 60>     p 1
| 61>      1       0.0330395653      1.0000000000
| 62>   end
| 63>   NewAuxGTO 56
| 64>     S 1
| 65>      1 1310.72 1.0
| 66>     S 1
| 67>      1  655.36 1.0
| 68>     S 1
| 69>      1  327.68 1.0
| 70>     S 1
| 71>      1  163.84 1.0
| 72>     S 1
| 73>      1   81.82 1.0
| 74>     S 1
| 75>      1   40.96 1.0
| 76>     S 1
| 77>      1   20.48 1.0
| 78>     S 1
| 79>      1   10.24 1.0
| 80>     S 1
| 81>      1    5.12 1.0
| 82>     S 1
| 83>      1    2.56 1.0
| 84>     S 1
| 85>      1    1.28 1.0
| 86>     S 1
| 87>      1    0.64 1.0
| 88>     S 1
| 89>      1    0.32 1.0
| 90>     S 1
| 91>      1    0.16 1.0
| 92>     S 1
| 93>      1    0.08 1.0
| 94>     S 1
| 95>      1    0.04 1.0
| 96>     S 1
| 97>      1    0.02 1.0
| 98>     S 1
| 99>      1    0.01 1.0
|100>   end
|101> end
|102>
|103> * xyz 0 1
|104> 56  0.0 0.0 0.0
|105> *
|106>
|107>
|108>                          ****END OF INPUT****

CARTESIAN COORDINATES (ANGSTROEM)
---------------------------------
  Ba     0.000000    0.000000    0.000000

 Total Charge           Charge          ....    0
 Multiplicity           Mult            ....    1
 Number of Electrons    NEL             ....   10
 Basis Dimension        Dim             ....   13

ORBITAL ENERGIES
----------------

  NO   OCC          E(Eh)            E(eV)
   0   2.0000      -1.614499       -43.9328
   1   2.0000      -0.913149       -24.8480
   2   2.0000      -0.913149       -24.8480
   3   2.0000      -0.913149       -24.8480
   4   2.0000      -0.176082        -4.7914
   5   0.0000       0.030598         0.8326
   6   0.0000       0.030598         0.8326
   7   0.0000       0.030598         0.8326
   8   0.0000       0.079537         2.1643
   9   0.0000       1.207458        32.8566

--------------------------
ATOM BASIS FOR ELEMENT Ba
--------------------------
 NewGTO Ba
 S 6
    1          2.396190000000        -6.086326139122
    2          2.243305000000         6.827345409830
    3          0.717402000000        -0.583089262640
    4          0.274200735500        -0.961586611978
    5          0.040933264200         0.046640801235
    6          0.018060156400         0.050361920603
 S 6
    1          2.396190000000        -1.434750956004
    2          2.243305000000         1.609434021414
    3          0.717402000000        -0.137453672032
    4          0.274200735500        -0.470814241679
    5          0.040933264200         0.779784209492
    6          0.018060156400         0.398191723069
 S 6
    1          2.396190000000        -1.950298366792
    2          2.243305000000         2.187750097177
    3          0.717402000000        -0.186844741906
    4          0.274200735500        -0.622538388477
    5          0.040933264200         2.539567002517
    6          0.018060156400        -2.310108389929
 S 6
    1          2.396190000000       -15.978540255783
    2          2.243305000000        17.923951325886
    3          0.717402000000        -1.530794611205
    4          0.274200735500         0.416673419101
    5          0.040933264200        -0.081067752492
    6          0.018060156400         0.040079901463
 P 6
    1          2.926742000000        -0.798475967034
    2          2.520718000000         1.071188468634
    3          0.675781808500        -0.349549301728
    4          0.319858445300        -0.650674480497
    5          0.132217924500        -0.200096309599
    6          0.033039565300        -0.002821467032
 P 6
    1          2.926742000000        -0.170915551746
    2          2.520718000000         0.229290267584
    3          0.675781808500        -0.074821803328
    4          0.319858445300        -0.139278315732
    5          0.132217924500        -0.207137556799
    6          0.033039565300         1.107155397933
 P 6
    1          2.926742000000        -1.291932049792
    2          2.520718000000         1.733180172143
    3          0.675781808500        -0.565569866257
    4          0.319858445300        -1.052789626792
    5          0.132217924500         1.884242012938
    6          0.033039565300        -0.685741694815
 end
  // -----------------------------------------------
  // The basis set
  // -----------------------------------------------
  BAS[ATNO] = new BFNGauss[NSH];
  // Basis function   1 L = s
  InitBFNGauss(BAS[ATNO][  0]);
  BAS[ATNO][  0].l  = 0;
  BAS[ATNO][  0].ng = 6;
  BAS[ATNO][  0].a[  0] =         2.396190000000;     BAS[ATNO][  0].d[  0] =        -6.086326139122;
  BAS[ATNO][  0].a[  1] =         2.243305000000;     BAS[ATNO][  0].d[  1] =         6.827345409830;
  BAS[ATNO][  0].a[  2] =         0.717402000000;     BAS[ATNO][  0].d[  2] =        -0.583089262640;
  BAS[ATNO][  0].a[  3] =         0.274200735500;     BAS[ATNO][  0].d[  3] =        -0.961586611978;
  BAS[ATNO][  0].a[  4] =         0.040933264200;     BAS[ATNO][  0].d[  4] =         0.046640801235;
  BAS[ATNO][  0].a[  5] =         0.018060156400;     BAS[ATNO][  0].d[  5] =         0.050361920603;

FINAL SINGLE POINT ENERGY       -25.070894662308

DIPOLE MOMENT
-------------
                                X             Y             Z
Electronic contribution:     -0.00000       0.00000      -0.00000
Nuclear contribution   :      0.00000       0.00000       0.00000
                        -----------------------------------------
Total Dipole Moment    :     -0.00000       0.00000      -0.00000
                        -----------------------------------------
Magnitude (a.u.)       :      0.00000
Magnitude (Debye)      :      0.00000

Rotational constants in cm-1:     0.000000     0.000000     0.000000
Rotational constants in MHz :     0.000000     0.000000     0.000000

                             ****ORCA TERMINATED NORMALLY****
TOTAL RUN TIME: 0 days 0 hours 0 minutes 1 seconds 267 msec
