                         Program Version 4.2.0 -  RELEASE  -
|  1> # input to generate an atomic fitting density for La
|  2> # this file is use internally by ORCA
|  3> #
|  4> # atomic ground state (S=2): 1s2 2s2 2p6 3s2 3p6 4s2 3d10 4p6 5s2 4d10 5p6 6s2 5d1
|  5> #
|  6> ! RHF AllowRHF def2-SVP def2/J  NoMulliken NoLoewdin NoMayer NoPrintMOs
|  7>
|  8> %output print[p_atomdensfit] 2 end
|  9>
| 10> %scf
| 11>   guess hcore
| 12>   maxiter 1000
| 13>   maxdisk 500000
| 14>   SCFMode Conventional
| 15>   lshift 0.100000
| 16>   hftyp rohf
| 17>   rohf_case sahf
| 18>   rohf_numop   2
| 19>   rohf_norb[1] 5
| 20>   rohf_nel[1]  1
| 21> end
| 22>
| 23> %basis
| 24>   NewECP 57
| 25>     N_core 46
| 26>     lmax f
| 27>     s 3
| 28>       1       3.3099000000     91.9321770000  2
| 29>       2       1.6550000000     -3.7887640000  2
| 30>       3       4.0286000000     36.0100160000  2
| 31>     p 3
| 32>       1       2.8368000000     63.7594860000  2
| 33>       2       1.4184000000     -0.6479580000  2
| 34>       3       4.0286000000     36.0100160000  2
| 35>     d 3
| 36>       1       2.0213000000     36.1161730000  2
| 37>       2       1.0107000000      0.2191140000  2
| 38>       3       4.0286000000     36.0100160000  2
| 39>     f 1
| 40>       1       4.0286000000    -36.0100160000  2
| 41>   end
| 42>   NewGTO 57
| 43>     s 2
| 44>      1       5.0873990000     -1.0478700509
| 45>      2       4.2709780000      2.0356076574
| 46>     s 1
| 47>      1       2.1823803999      1.0000000000
| 48>     s 1
| 49>      1       0.4895492646      1.0000000000
| 50>     s 1
| 51>      1       0.2329203255      1.0000000000
| 52>     s 1
| 53>      1       0.0555955299      1.0000000000
| 54>     s 1
| 55>      1       0.0227951849      1.0000000000
| 56>     p 4
| 57>      1       3.0251610000     -0.3230924218
| 58>      2       2.3820950000      0.5846625537
| 59>      3       0.6724665808     -0.5067135755
| 60>      4       0.3251942717     -0.6654516285
| 61>     p 1
| 62>      1       0.1363548937      1.0000000000
| 63>     p 1
| 64>      1       0.0251000000      1.0000000000
| 65>     d 4
| 66>      1       1.2667182018     -0.1949129974
| 67>      2       0.8904988267      0.2808490305
| 68>      3       0.3294729104      0.4983447351
| 69>      4       0.1339878883      0.5014083697
| 70>     d 1
| 71>      1       0.0512755031      1.0000000000
| 72>     f 1
| 73>      1       0.2568300000      1.0000000000
| 74>   end
| 75>   NewAuxGTO 57
| 76>     S 1
| 77>      1 1310.72 1.0
| 78>     S 1
| 79>      1  655.36 1.0
| 80>     S 1
| 81>      1  327.68 1.0
| 82>     S 1
| 83>      1  163.84 1.0
| 84>     S 1
| 85>      1   81.82 1.0
| 86>     S 1
| 87>      1   40.96 1.0
| 88>     S 1
| 89>      1   20.48 1.0
| 90>     S 1
| 91>      1   10.24 1.0
| 92>     S 1
| 93>      1    5.12 1.0
| 94>     S 1
| 95>      1    2.56 1.0
| 96>     S 1
| 97>      1    1.28 1.0
| 98>     S 1
| 99>      1    0.64 1.0
|100>     S 1
|101>      1    0.32 1.0
|102>     S 1
|103>      1    0.16 1.0
|104>     S 1
|105>      1    0.08 1.0
|106>     S 1
|107>      1    0.04 1.0
|108>     S 1
|109>      1    0.02 1.0
|110>     S 1
|111>      1    0.01 1.0
|112>   end
|113> end
|114>
|115> * xyz 0 2
|116> 57  0.0 0.0 0.0
|117> *
|118>
|119>
|120>                          ****END OF INPUT****

CARTESIAN COORDINATES (ANGSTROEM)
---------------------------------
  La     0.000000    0.000000    0.000000

 Total Charge           Charge          ....    0
 Multiplicity           Mult            ....    2
 Number of Electrons    NEL             ....   11
 Basis Dimension        Dim             ....   32

ORBITAL ENERGIES
----------------

  NO   OCC          E(Eh)            E(eV)
   0   2.0000      -1.931269       -52.5525
   1   2.0000      -1.132084       -30.8056
   2   2.0000      -1.132079       -30.8054
   3   2.0000      -1.132046       -30.8045
   4   2.0000      -0.219335        -5.9684
   5   0.2000      -0.210845        -5.7374
   6   0.2000      -0.210806        -5.7363
   7   0.2000      -0.135660        -3.6915
   8   0.2000      -0.135658        -3.6914
   9   0.2000      -0.135649        -3.6912
  10   0.0000      -0.204219        -5.5571
  11   0.0000      -0.204194        -5.5564
  12   0.0000      -0.204187        -5.5562
  13   0.0000      -0.049934        -1.3588
  14   0.0000       0.023883         0.6499

CleanUpVectors: The p-vectors have cracked symmetry
CleanUpVectors: The p-vectors have cracked symmetry
CleanUpVectors: The p-vectors have cracked symmetry
CleanUpVectors: The d-vectors have cracked symmetry at i=5
CleanUpVectors: The d-vectors have cracked symmetry at i=6
CleanUpVectors: The p-vectors have cracked symmetry
CleanUpVectors: The p-vectors have cracked symmetry
CleanUpVectors: The p-vectors have cracked symmetry
CleanUpVectors: The d-vectors have cracked symmetry at i=10
CleanUpVectors: The d-vectors have cracked symmetry at i=11
CleanUpVectors: The d-vectors have cracked symmetry at i=12
CleanUpVectors: The d-vectors have cracked symmetry at i=14
CleanUpVectors: The d-vectors have cracked symmetry at i=15
CleanUpVectors: The d-vectors have cracked symmetry at i=16
CleanUpVectors: The d-vectors have cracked symmetry at i=17
CleanUpVectors: The d-vectors have cracked symmetry at i=18
CleanUpVectors: The p-vectors have cracked symmetry
CleanUpVectors: The p-vectors have cracked symmetry
CleanUpVectors: The p-vectors have cracked symmetry
CleanUpVectors: The f-vectors have cracked symmetry
CleanUpVectors: The f-vectors have cracked symmetry
CleanUpVectors: The f-vectors have cracked symmetry
CleanUpVectors: The f-vectors have cracked symmetry
--------------------------
ATOM BASIS FOR ELEMENT La
--------------------------
 NewGTO La
 S 7
    1          5.087399000000        -0.498589050549
    2          4.270978000000         0.968566367864
    3          2.182380399900        -1.040308766678
    4          0.489549264600         0.938721563948
    5          0.232920325500         0.415951564017
    6          0.055595529900         0.005285673038
    7          0.022795184900        -0.000659407346
 P 19
    1          3.025161000000        -0.066194984711
    2          2.382095000000         0.119785318974
    3          0.672466580800        -0.103815178321
    4          0.325194271700        -0.136337336943
    5          3.025161000000         0.010322853876
    6          2.382095000000        -0.018680060879
    7          0.672466580800         0.016189578721
    8          0.325194271700         0.021261284571
    9          3.025161000000        -0.282309863312
   10          2.382095000000         0.510863129191
   11          0.672466580800        -0.442753313249
   12          0.325194271700        -0.581454548627
   13          0.136354893700        -0.030480636253
   14          0.136354893700         0.004753338270
   15          0.136354893700        -0.129994504745
   16          0.025100000000        -0.000466633172
   17          0.025100000000         0.000072769653
   18          0.025100000000        -0.001990107672
   19          0.256830000000         0.000770577061
 S 7
    1          5.087399000000        -0.186225349465
    2          4.270978000000         0.361764082337
    3          2.182380399900        -0.407170856025
    4          0.489549264600         0.509571211955
    5          0.232920325500         0.343558894844
    6          0.055595529900        -0.906467878533
    7          0.022795184900        -0.344336679694
 D 19
    1          5.087399000000        -0.000006526519
    2          4.270978000000         0.000015102079
    3          2.182380399900        -0.000032500314
    4          0.489549264600         0.000139330350
    5          0.232920325500         0.000507516517
    6          0.055595529900        -0.006558549390
    7          0.022795184900         0.008297111757
    8          1.266718201800        -0.037269123882
    9          0.890498826700         0.053700868846
   10          0.329472910400         0.095288010117
   11          0.133987888300         0.095873804697
   12          1.266718201800        -0.010970223167
   13          0.890498826700         0.015806932231
   14          0.329472910400         0.028048170369
   15          0.133987888300         0.028220599893
   16          1.266718201800         0.054344450808
   17          0.890498826700        -0.078304610396
   18          0.329472910400        -0.138945433622
   19          0.133987888300        -0.139799617499
 P 19
    1          3.025161000000        -0.110181078694
    2          2.382095000000         0.199381806852
    3          0.672466580800        -0.172799621936
    4          0.325194271700        -0.226932522398
    5          3.025161000000         0.012122764938
    6          2.382095000000        -0.021937149336
    7          0.672466580800         0.019012422304
    8          0.325194271700         0.024968439757
    9          3.025161000000         0.026278133944
   10          2.382095000000        -0.047552464440
   11          0.672466580800         0.041212626202
   12          0.325194271700         0.054123296764
   13          0.136354893700         0.190117807842
   14          0.136354893700        -0.020917870130
   15          0.136354893700        -0.045343005159
   16          0.025100000000         0.908021469540
   17          0.025100000000        -0.099905818350
   18          0.025100000000        -0.216562681031
   19          0.256830000000        -0.000002694599
 D 19
    1          1.266718201800         0.026954209242
    2          0.890498826700        -0.038838166949
    3          0.329472910400        -0.068915302949
    4          0.133987888300        -0.069338968119
    5          1.266718201800         0.136668738134
    6          0.890498826700        -0.196925208255
    7          0.329472910400        -0.349428447617
    8          0.133987888300        -0.351576601309
    9          1.266718201800        -0.002300464899
   10          0.890498826700         0.003314726802
   11          0.329472910400         0.005881724595
   12          0.133987888300         0.005917883209
   13          1.266718201800        -0.014888941274
   14          0.890498826700         0.021453390886
   15          0.329472910400         0.038067371566
   16          0.133987888300         0.038301395342
   17          1.266718201800        -0.033159046392
   18          0.890498826700         0.047778681543
   19          0.329472910400         0.084779549905
 D 19
    1          1.266718201800         0.031729540106
    2          0.890498826700        -0.045718914059
    3          0.329472910400        -0.081124652896
    4          0.133987888300        -0.081623376523
    5          1.266718201800         0.160881596231
    6          0.890498826700        -0.231813377915
    7          0.329472910400        -0.411334787960
    8          0.133987888300        -0.413863518375
    9          1.266718201800        -0.002708025774
   10          0.890498826700         0.003901978951
   11          0.329472910400         0.006923757804
   12          0.133987888300         0.006966322443
   13          1.266718201800        -0.017526734139
   14          0.890498826700         0.025254171638
   15          0.329472910400         0.044811561047
   16          0.133987888300         0.045087045544
   17          1.266718201800        -0.039033654555
   18          0.890498826700         0.056243371068
   19          0.329472910400         0.099799482327
 F 19
    1          3.025161000000        -0.000012449862
    2          2.382095000000         0.000028610961
    3          0.672466580800        -0.000087837119
    4          0.325194271700        -0.000238539252
    5          3.025161000000        -0.000110706955
    6          2.382095000000         0.000254415067
    7          0.672466580800        -0.000781067305
    8          0.325194271700        -0.002121144381
    9          3.025161000000        -0.000001128878
   10          2.382095000000         0.000002594268
   11          0.672466580800        -0.000007964536
   12          0.325194271700        -0.000021629289
   13          0.136354893700         0.001901658550
   14          0.136354893700         0.016909973171
   15          0.136354893700         0.000172430833
   16          0.025100000000        -0.004166217535
   17          0.025100000000        -0.037046938179
   18          0.025100000000        -0.000377767269
   19          0.256830000000         0.159251606870
 S 19
    1          5.087399000000        -3.684773333851
    2          4.270978000000         7.158094467657
    3          2.182380399900        -5.111847088126
    4          0.489549264600         2.664252740523
    5          0.232920325500        -1.763583928142
    6          0.055595529900         0.569431762441
    7          0.022795184900        -0.235570498318
    8          1.266718201800        -0.000002310203
    9          0.890498826700         0.000002340106
   10          0.329472910400         0.000001536310
   11          1.266718201800         0.000000788582
   12          0.890498826700        -0.000000798789
   13          0.329472910400        -0.000000524415
   14          1.266718201800         0.000000291541
   15          0.890498826700        -0.000000295315
   16          1.266718201800         0.000002948320
   17          0.890498826700        -0.000002986484
   18          0.329472910400        -0.000001960665
   19          0.133987888300        -0.000000802252
 S 11
    1          5.087399000000        -3.236723370392
    2          4.270978000000         6.287706068130
    3          2.182380399900        -2.660818329174
    4          0.489549264600         0.908545995695
    5          0.232920325500        -0.571527999637
    6          0.055595529900         0.181406891090
    7          0.022795184900        -0.075152208092
    8          1.266718201800        -0.000000194232
    9          0.890498826700         0.000000196747
   10          1.266718201800         0.000000246973
   11          0.890498826700        -0.000000250170
 end
  // -----------------------------------------------
  // The basis set
  // -----------------------------------------------
  BAS[ATNO] = new BFNGauss[NSH];
  // Basis function   1 L = s
  InitBFNGauss(BAS[ATNO][  0]);
  BAS[ATNO][  0].l  = 0;
  BAS[ATNO][  0].ng = 7;
  BAS[ATNO][  0].a[  0] =         5.087399000000;     BAS[ATNO][  0].d[  0] =         0.498589050549;
  BAS[ATNO][  0].a[  1] =         4.270978000000;     BAS[ATNO][  0].d[  1] =        -0.968566367864;
  BAS[ATNO][  0].a[  2] =         2.182380399900;     BAS[ATNO][  0].d[  2] =         1.040308766678;
  BAS[ATNO][  0].a[  3] =         0.489549264600;     BAS[ATNO][  0].d[  3] =        -0.938721563948;
  BAS[ATNO][  0].a[  4] =         0.232920325500;     BAS[ATNO][  0].d[  4] =        -0.415951564017;
  BAS[ATNO][  0].a[  5] =         0.055595529900;     BAS[ATNO][  0].d[  5] =        -0.005285673038;
  BAS[ATNO][  0].a[  6] =         0.022795184900;     BAS[ATNO][  0].d[  6] =         0.000659407346;

FINAL SINGLE POINT ENERGY       -31.020936520737

DIPOLE MOMENT
-------------
                                X             Y             Z
Electronic contribution:     -0.00000       0.00000       0.00000
Nuclear contribution   :      0.00000       0.00000       0.00000
                        -----------------------------------------
Total Dipole Moment    :     -0.00000       0.00000       0.00000
                        -----------------------------------------
Magnitude (a.u.)       :      0.00000
Magnitude (Debye)      :      0.00000

Rotational constants in cm-1:     0.000000     0.000000     0.000000
Rotational constants in MHz :     0.000000     0.000000     0.000000

                             ****ORCA TERMINATED NORMALLY****
TOTAL RUN TIME: 0 days 0 hours 0 minutes 2 seconds 486 msec
