                         Program Version 4.2.0 -  RELEASE  -
|  1> #
|  2> # 58_Ce CCSD(T)/Def2-SVP
|  3> #
|  4> ! CCSD(T) Def2-SVP tightscf
|  5>
|  6> *xyz 0 3
|  7>  Ce 0.0 0.0 0.0
|  8> *
|  9>
| 10> %maxcore 5000
| 11>
| 12> %pal
| 13> nprocs 24
| 14> end
| 15>
| 16>
| 17>                          ****END OF INPUT****

CARTESIAN COORDINATES (ANGSTROEM)
---------------------------------
  Ce     0.000000    0.000000    0.000000

 Total Charge           Charge          ....    0
 Multiplicity           Mult            ....    3
 Number of Electrons    NEL             ....   30
 Basis Dimension        Dim             ....   78

ORBITAL ENERGIES
----------------
                 SPIN UP ORBITALS
  NO   OCC          E(Eh)            E(eV)
   0   1.0000     -11.982670      -326.0650
   1   1.0000      -8.761865      -238.4225
   2   1.0000      -8.759600      -238.3608
   3   1.0000      -8.745433      -237.9753
   4   1.0000      -4.608639      -125.4075
   5   1.0000      -4.603217      -125.2599
   6   1.0000      -4.590318      -124.9089
   7   1.0000      -4.570986      -124.3828
   8   1.0000      -4.519584      -122.9841
   9   1.0000      -1.785115       -48.5755
  10   1.0000      -0.983576       -26.7645
  11   1.0000      -0.981568       -26.7098
  12   1.0000      -0.968994       -26.3677
  13   1.0000      -0.320397        -8.7184
  14   1.0000      -0.319758        -8.7011
  15   1.0000      -0.171094        -4.6557
  16   0.0000       0.032814         0.8929
  17   0.0000       0.033171         0.9026
  18   0.0000       0.035241         0.9590
  19   0.0000       0.092072         2.5054
  20   0.0000       0.097600         2.6558

                 SPIN DOWN ORBITALS
  NO   OCC          E(Eh)            E(eV)
   0   1.0000     -11.882527      -323.3400
   1   1.0000      -8.673422      -236.0158
   2   1.0000      -8.661641      -235.6952
   3   1.0000      -8.589260      -233.7256
   4   1.0000      -4.475063      -121.7726
   5   1.0000      -4.452097      -121.1477
   6   1.0000      -4.406641      -119.9108
   7   1.0000      -4.404710      -119.8582
   8   1.0000      -4.393481      -119.5527
   9   1.0000      -1.735300       -47.2199
  10   1.0000      -0.954331       -25.9687
  11   1.0000      -0.948445       -25.8085
  12   1.0000      -0.912888       -24.8409
  13   1.0000      -0.168316        -4.5801
  14   0.0000       0.033909         0.9227
  15   0.0000       0.034234         0.9316
  16   0.0000       0.036409         0.9907
  17   0.0000       0.094100         2.5606
  18   0.0000       0.105176         2.8620

E(0)                                       ...   -473.463320497
E(0)                                       ...   -473.463320497
E(CORR)                                    ...     -0.745723502
E(TOT)                                     ...   -474.209043999
E(CCSD(T))                                 ...   -474.229927248

MULLIKEN ATOMIC CHARGES AND SPIN DENSITIES
------------------------------------------
   0 Ce:    0.000000    2.000000
Sum of atomic charges       :    0.0000000

LOEWDIN ATOMIC CHARGES AND SPIN DENSITIES
-----------------------------------------
   0 Ce:    0.000000    2.000000

FINAL SINGLE POINT ENERGY      -474.229927248481

DIPOLE MOMENT
-------------
                                X             Y             Z
Electronic contribution:      0.00000      -0.00000      -0.00000
Nuclear contribution   :      0.00000       0.00000       0.00000
                        -----------------------------------------
Total Dipole Moment    :      0.00000      -0.00000      -0.00000
                        -----------------------------------------
Magnitude (a.u.)       :      0.00000
Magnitude (Debye)      :      0.00000

Rotational constants in cm-1:     0.000000     0.000000     0.000000
Rotational constants in MHz :     0.000000     0.000000     0.000000

                             ****ORCA TERMINATED NORMALLY****
TOTAL RUN TIME: 0 days 0 hours 2 minutes 7 seconds 63 msec
