                         Program Version 4.2.0 -  RELEASE  -
|  1> #
|  2> # 59_Pr CCSD(T)/Def2-SVP
|  3> #
|  4> ! CCSD(T) Def2-SVP tightscf
|  5>
|  6> *xyz 0 4
|  7>  Pr 0.0 0.0 0.0
|  8> *
|  9>
| 10> %maxcore 5000
| 11>
| 12> %pal
| 13> nprocs 24
| 14> end
| 15>
| 16>
| 17>                          ****END OF INPUT****

CARTESIAN COORDINATES (ANGSTROEM)
---------------------------------
  Pr     0.000000    0.000000    0.000000

 Total Charge           Charge          ....    0
 Multiplicity           Mult            ....    4
 Number of Electrons    NEL             ....   31
 Basis Dimension        Dim             ....   78

ORBITAL ENERGIES
----------------
                 SPIN UP ORBITALS
  NO   OCC          E(Eh)            E(eV)
   0   1.0000     -12.590502      -342.6050
   1   1.0000      -9.142990      -248.7934
   2   1.0000      -9.142918      -248.7914
   3   1.0000      -9.142871      -248.7902
   4   1.0000      -4.880538      -132.8062
   5   1.0000      -4.880242      -132.7981
   6   1.0000      -4.879288      -132.7722
   7   1.0000      -4.836343      -131.6036
   8   1.0000      -4.836272      -131.6016
   9   1.0000      -1.857824       -50.5540
  10   1.0000      -1.008732       -27.4490
  11   1.0000      -1.008665       -27.4472
  12   1.0000      -1.008622       -27.4460
  13   1.0000      -0.387004       -10.5309
  14   1.0000      -0.386972       -10.5300
  15   1.0000      -0.386850       -10.5267
  16   1.0000      -0.174314        -4.7433
  17   0.0000       0.034691         0.9440
  18   0.0000       0.034703         0.9443
  19   0.0000       0.034708         0.9444
  20   0.0000       0.095932         2.6104
  21   0.0000       0.102113         2.7786

                 SPIN DOWN ORBITALS
  NO   OCC          E(Eh)            E(eV)
   0   1.0000     -12.425758      -338.1221
   1   1.0000      -8.956900      -243.7296
   2   1.0000      -8.956502      -243.7188
   3   1.0000      -8.956243      -243.7118
   4   1.0000      -4.627435      -125.9189
   5   1.0000      -4.627328      -125.9160
   6   1.0000      -4.610222      -125.4505
   7   1.0000      -4.609588      -125.4333
   8   1.0000      -4.609423      -125.4288
   9   1.0000      -1.782893       -48.5150
  10   1.0000      -0.951029       -25.8788
  11   1.0000      -0.950839       -25.8737
  12   1.0000      -0.950716       -25.8703
  13   1.0000      -0.170662        -4.6439
  14   0.0000       0.036227         0.9858
  15   0.0000       0.036237         0.9861
  16   0.0000       0.036246         0.9863
  17   0.0000       0.098554         2.6818
  18   0.0000       0.117537         3.1984

E(0)                                       ...   -515.303408012
E(0)                                       ...   -515.303408012
E(CORR)                                    ...     -0.754813968
E(TOT)                                     ...   -516.058221980
E(CCSD(T))                                 ...   -516.081717922

MULLIKEN ATOMIC CHARGES AND SPIN DENSITIES
------------------------------------------
   0 Pr:   -0.000000    3.000000
Sum of atomic charges       :   -0.0000000

LOEWDIN ATOMIC CHARGES AND SPIN DENSITIES
-----------------------------------------
   0 Pr:   -0.000000    3.000000

FINAL SINGLE POINT ENERGY      -516.081717922253

DIPOLE MOMENT
-------------
                                X             Y             Z
Electronic contribution:     -0.00000       0.00000       0.00000
Nuclear contribution   :      0.00000       0.00000       0.00000
                        -----------------------------------------
Total Dipole Moment    :     -0.00000       0.00000       0.00000
                        -----------------------------------------
Magnitude (a.u.)       :      0.00000
Magnitude (Debye)      :      0.00000

Rotational constants in cm-1:     0.000000     0.000000     0.000000
Rotational constants in MHz :     0.000000     0.000000     0.000000

                             ****ORCA TERMINATED NORMALLY****
TOTAL RUN TIME: 0 days 0 hours 3 minutes 5 seconds 487 msec
