                         Program Version 4.2.0 -  RELEASE  -
|  1> #
|  2> # 60_Nd CCSD(T)/Def2-SVP
|  3> #
|  4> ! CCSD(T) Def2-SVP tightscf
|  5>
|  6> *xyz 0 5
|  7>  Nd 0.0 0.0 0.0
|  8> *
|  9>
| 10> %maxcore 5000
| 11>
| 12> %pal
| 13> nprocs 24
| 14> end
| 15>
| 16>
| 17>                          ****END OF INPUT****

CARTESIAN COORDINATES (ANGSTROEM)
---------------------------------
  Nd     0.000000    0.000000    0.000000

 Total Charge           Charge          ....    0
 Multiplicity           Mult            ....    5
 Number of Electrons    NEL             ....   32
 Basis Dimension        Dim             ....   78

ORBITAL ENERGIES
----------------
                 SPIN UP ORBITALS
  NO   OCC          E(Eh)            E(eV)
   0   1.0000     -13.185288      -358.7899
   1   1.0000      -9.548296      -259.8224
   2   1.0000      -9.548295      -259.8223
   3   1.0000      -9.548294      -259.8223
   4   1.0000      -5.165203      -140.5523
   5   1.0000      -5.165203      -140.5523
   6   1.0000      -5.121150      -139.3536
   7   1.0000      -5.121142      -139.3534
   8   1.0000      -5.121128      -139.3530
   9   1.0000      -1.928721       -52.4832
  10   1.0000      -1.043932       -28.4068
  11   1.0000      -1.043931       -28.4068
  12   1.0000      -1.043930       -28.4068
  13   1.0000      -0.467010       -12.7080
  14   1.0000      -0.423335       -11.5195
  15   1.0000      -0.423327       -11.5193
  16   1.0000      -0.423322       -11.5192
  17   1.0000      -0.177423        -4.8279
  18   0.0000       0.030567         0.8318
  19   0.0000       0.030567         0.8318
  20   0.0000       0.030567         0.8318
  21   0.0000       0.095664         2.6032
  22   0.0000       0.122765         3.3406

                 SPIN DOWN ORBITALS
  NO   OCC          E(Eh)            E(eV)
   0   1.0000     -12.951385      -352.4251
   1   1.0000      -9.284993      -252.6575
   2   1.0000      -9.284986      -252.6573
   3   1.0000      -9.284982      -252.6572
   4   1.0000      -4.800667      -130.6328
   5   1.0000      -4.800658      -130.6326
   6   1.0000      -4.800653      -130.6324
   7   1.0000      -4.782792      -130.1464
   8   1.0000      -4.782792      -130.1464
   9   1.0000      -1.829873       -49.7934
  10   1.0000      -0.968404       -26.3516
  11   1.0000      -0.968401       -26.3515
  12   1.0000      -0.968399       -26.3515
  13   1.0000      -0.172559        -4.6956
  14   0.0000       0.032157         0.8750
  15   0.0000       0.032158         0.8751
  16   0.0000       0.032158         0.8751
  17   0.0000       0.099014         2.6943
  18   0.0000       0.144181         3.9234

E(0)                                       ...   -559.628351544
E(0)                                       ...   -559.628351544
E(CORR)                                    ...     -0.762283613
E(TOT)                                     ...   -560.390635158
E(CCSD(T))                                 ...   -560.413517331

MULLIKEN ATOMIC CHARGES AND SPIN DENSITIES
------------------------------------------
   0 Nd:   -0.000000    4.000000
Sum of atomic charges       :   -0.0000000

LOEWDIN ATOMIC CHARGES AND SPIN DENSITIES
-----------------------------------------
   0 Nd:   -0.000000    4.000000

FINAL SINGLE POINT ENERGY      -560.413517331128

DIPOLE MOMENT
-------------
                                X             Y             Z
Electronic contribution:      0.00000       0.00000      -0.00000
Nuclear contribution   :      0.00000       0.00000       0.00000
                        -----------------------------------------
Total Dipole Moment    :      0.00000       0.00000      -0.00000
                        -----------------------------------------
Magnitude (a.u.)       :      0.00000
Magnitude (Debye)      :      0.00000

Rotational constants in cm-1:     0.000000     0.000000     0.000000
Rotational constants in MHz :     0.000000     0.000000     0.000000

                             ****ORCA TERMINATED NORMALLY****
TOTAL RUN TIME: 0 days 0 hours 1 minutes 3 seconds 658 msec
