                         Program Version 4.2.0 -  RELEASE  -
|  1> #
|  2> # 62_Sm CCSD(T)/Def2-SVP
|  3> #
|  4> ! CCSD(T) Def2-SVP tightscf
|  5>
|  6> *xyz 0 7
|  7>  Sm 0.0 0.0 0.0
|  8> *
|  9>
| 10> %maxcore 5000
| 11>
| 12> %pal
| 13> nprocs 24
| 14> end
| 15>
| 16>
| 17>                          ****END OF INPUT****

CARTESIAN COORDINATES (ANGSTROEM)
---------------------------------
  Sm     0.000000    0.000000    0.000000

 Total Charge           Charge          ....    0
 Multiplicity           Mult            ....    7
 Number of Electrons    NEL             ....   34
 Basis Dimension        Dim             ....   78

ORBITAL ENERGIES
----------------
                 SPIN UP ORBITALS
  NO   OCC          E(Eh)            E(eV)
   0   1.0000     -14.181647      -385.9022
   1   1.0000     -10.410231      -283.2768
   2   1.0000     -10.408951      -283.2420
   3   1.0000     -10.408323      -283.2249
   4   1.0000      -5.690364      -154.8427
   5   1.0000      -5.690257      -154.8398
   6   1.0000      -5.595641      -152.2651
   7   1.0000      -5.593220      -152.1993
   8   1.0000      -5.587950      -152.0559
   9   1.0000      -2.041854       -55.5617
  10   1.0000      -1.114634       -30.3307
  11   1.0000      -1.113383       -30.2967
  12   1.0000      -1.112769       -30.2800
  13   1.0000      -0.528778       -14.3888
  14   1.0000      -0.526604       -14.3296
  15   1.0000      -0.522197       -14.2097
  16   1.0000      -0.483240       -13.1496
  17   1.0000      -0.483064       -13.1448
  18   1.0000      -0.482989       -13.1428
  19   1.0000      -0.182051        -4.9539
  20   0.0000       0.025085         0.6826
  21   0.0000       0.025192         0.6855
  22   0.0000       0.025245         0.6869
  23   0.0000       0.097944         2.6652
  24   0.0000       0.127820         3.4782

                 SPIN DOWN ORBITALS
  NO   OCC          E(Eh)            E(eV)
   0   1.0000     -13.791776      -375.2933
   1   1.0000      -9.979743      -271.5626
   2   1.0000      -9.972570      -271.3674
   3   1.0000      -9.969057      -271.2718
   4   1.0000      -5.085468      -138.3826
   5   1.0000      -5.080230      -138.2401
   6   1.0000      -5.077505      -138.1659
   7   1.0000      -5.041640      -137.1900
   8   1.0000      -5.041538      -137.1872
   9   1.0000      -1.896725       -51.6125
  10   1.0000      -1.005006       -27.3476
  11   1.0000      -1.002010       -27.2661
  12   1.0000      -1.000546       -27.2262
  13   1.0000      -0.175304        -4.7703
  14   0.0000       0.026432         0.7193
  15   0.0000       0.026543         0.7223
  16   0.0000       0.026597         0.7237
  17   0.0000       0.102676         2.7940
  18   0.0000       0.154768         4.2115

E(0)                                       ...   -656.054502963
E(0)                                       ...   -656.054502963
E(CORR)                                    ...     -0.781444764
E(TOT)                                     ...   -656.835947727
E(CCSD(T))                                 ...   -656.859995547

MULLIKEN ATOMIC CHARGES AND SPIN DENSITIES
------------------------------------------
   0 Sm:   -0.000000    6.000000
Sum of atomic charges       :   -0.0000000

LOEWDIN ATOMIC CHARGES AND SPIN DENSITIES
-----------------------------------------
   0 Sm:   -0.000000    6.000000

FINAL SINGLE POINT ENERGY      -656.859995546888

DIPOLE MOMENT
-------------
                                X             Y             Z
Electronic contribution:      0.00000      -0.00000      -0.00000
Nuclear contribution   :      0.00000       0.00000       0.00000
                        -----------------------------------------
Total Dipole Moment    :      0.00000      -0.00000      -0.00000
                        -----------------------------------------
Magnitude (a.u.)       :      0.00000
Magnitude (Debye)      :      0.00000

Rotational constants in cm-1:     0.000000     0.000000     0.000000
Rotational constants in MHz :     0.000000     0.000000     0.000000

                             ****ORCA TERMINATED NORMALLY****
TOTAL RUN TIME: 0 days 0 hours 1 minutes 30 seconds 720 msec
