                         Program Version 4.2.0 -  RELEASE  -
|  1> #
|  2> # 63_Eu CCSD(T)/Def2-SVP
|  3> #
|  4> ! CCSD(T) Def2-SVP tightscf
|  5>
|  6> *xyz 0 8
|  7>  Eu 0.0 0.0 0.0
|  8> *
|  9>
| 10> %maxcore 5000
| 11>
| 12> %pal
| 13> nprocs 24
| 14> end
| 15>
| 16>
| 17>                          ****END OF INPUT****

CARTESIAN COORDINATES (ANGSTROEM)
---------------------------------
  Eu     0.000000    0.000000    0.000000

 Total Charge           Charge          ....    0
 Multiplicity           Mult            ....    8
 Number of Electrons    NEL             ....   35
 Basis Dimension        Dim             ....   78

ORBITAL ENERGIES
----------------
                 SPIN UP ORBITALS
  NO   OCC          E(Eh)            E(eV)
   0   1.0000     -15.126811      -411.6214
   1   1.0000     -11.099974      -302.0457
   2   1.0000     -11.099893      -302.0434
   3   1.0000     -11.094948      -301.9089
   4   1.0000      -6.247213      -169.9953
   5   1.0000      -6.243497      -169.8942
   6   1.0000      -6.135741      -166.9620
   7   1.0000      -6.129081      -166.7808
   8   1.0000      -6.128899      -166.7758
   9   1.0000      -2.277313       -61.9688
  10   1.0000      -1.309018       -35.6202
  11   1.0000      -1.289789       -35.0969
  12   1.0000      -1.289686       -35.0941
  13   1.0000      -0.852187       -23.1892
  14   1.0000      -0.851993       -23.1839
  15   1.0000      -0.850581       -23.1455
  16   1.0000      -0.806868       -21.9560
  17   1.0000      -0.806842       -21.9553
  18   1.0000      -0.803647       -21.8684
  19   1.0000      -0.222370        -6.0510
  20   1.0000      -0.208753        -5.6805
  21   0.0000       0.022659         0.6166
  22   0.0000       0.023140         0.6297
  23   0.0000       0.023186         0.6309
  24   0.0000       0.086622         2.3571
  25   0.0000       0.087620         2.3843

                 SPIN DOWN ORBITALS
  NO   OCC          E(Eh)            E(eV)
   0   1.0000     -14.692432      -399.8014
   1   1.0000     -10.619994      -288.9847
   2   1.0000     -10.619658      -288.9756
   3   1.0000     -10.611576      -288.7557
   4   1.0000      -5.576633      -151.7479
   5   1.0000      -5.572284      -151.6296
   6   1.0000      -5.572042      -151.6230
   7   1.0000      -5.533695      -150.5795
   8   1.0000      -5.522741      -150.2814
   9   1.0000      -2.116121       -57.5826
  10   1.0000      -1.164151       -31.6781
  11   1.0000      -1.163847       -31.6699
  12   1.0000      -1.135848       -30.9080
  13   1.0000      -0.184887        -5.0310
  14   0.0000       0.025486         0.6935
  15   0.0000       0.025596         0.6965
  16   0.0000       0.034976         0.9517
  17   0.0000       0.095859         2.6085
  18   0.0000       0.126622         3.4456

E(0)                                       ...   -708.248379840
E(0)                                       ...   -708.248379840
E(CORR)                                    ...     -0.773640308
E(TOT)                                     ...   -709.022020149
E(CCSD(T))                                 ...   -709.043839364

MULLIKEN ATOMIC CHARGES AND SPIN DENSITIES
------------------------------------------
   0 Eu:   -0.000000    7.000000
Sum of atomic charges       :   -0.0000000

LOEWDIN ATOMIC CHARGES AND SPIN DENSITIES
-----------------------------------------
   0 Eu:   -0.000000    7.000000

FINAL SINGLE POINT ENERGY      -709.043839363988

DIPOLE MOMENT
-------------
                                X             Y             Z
Electronic contribution:     -0.00000      -0.00000      -0.00000
Nuclear contribution   :      0.00000       0.00000       0.00000
                        -----------------------------------------
Total Dipole Moment    :     -0.00000      -0.00000      -0.00000
                        -----------------------------------------
Magnitude (a.u.)       :      0.00000
Magnitude (Debye)      :      0.00000

Rotational constants in cm-1:     0.000000     0.000000     0.000000
Rotational constants in MHz :     0.000000     0.000000     0.000000

                             ****ORCA TERMINATED NORMALLY****
TOTAL RUN TIME: 0 days 0 hours 1 minutes 9 seconds 766 msec
