                         Program Version 4.2.0 -  RELEASE  -
|  1> #
|  2> # 64_Gd CCSD(T)/Def2-SVP
|  3> #
|  4> ! CCSD(T) Def2-SVP tightscf
|  5>
|  6> *xyz 0 9
|  7>  Gd 0.0 0.0 0.0
|  8> *
|  9>
| 10> %maxcore 5000
| 11>
| 12> %pal
| 13> nprocs 24
| 14> end
| 15>
| 16>
| 17>                          ****END OF INPUT****

CARTESIAN COORDINATES (ANGSTROEM)
---------------------------------
  Gd     0.000000    0.000000    0.000000

 Total Charge           Charge          ....    0
 Multiplicity           Mult            ....    9
 Number of Electrons    NEL             ....   36
 Basis Dimension        Dim             ....   78

ORBITAL ENERGIES
----------------
                 SPIN UP ORBITALS
  NO   OCC          E(Eh)            E(eV)
   0   1.0000     -15.752906      -428.6584
   1   1.0000     -11.331409      -308.3433
   2   1.0000     -11.325203      -308.1744
   3   1.0000     -11.325203      -308.1744
   4   1.0000      -6.423369      -174.7888
   5   1.0000      -6.417781      -174.6367
   6   1.0000      -6.415003      -174.5611
   7   1.0000      -6.415003      -174.5611
   8   1.0000      -6.406903      -174.3407
   9   1.0000      -2.337677       -63.6114
  10   1.0000      -1.296807       -35.2879
  11   1.0000      -1.296807       -35.2879
  12   1.0000      -1.271116       -34.5888
  13   1.0000      -0.850600       -23.1460
  14   1.0000      -0.849888       -23.1266
  15   1.0000      -0.849888       -23.1266
  16   1.0000      -0.848526       -23.0896
  17   1.0000      -0.846031       -23.0217
  18   1.0000      -0.843577       -22.9549
  19   1.0000      -0.843577       -22.9549
  20   1.0000      -0.252841        -6.8801
  21   1.0000      -0.208941        -5.6856
  22   0.0000       0.027594         0.7509
  23   0.0000       0.027595         0.7509
  24   0.0000       0.028944         0.7876
  25   0.0000       0.088960         2.4207
  26   0.0000       0.104558         2.8452

                 SPIN DOWN ORBITALS
  NO   OCC          E(Eh)            E(eV)
   0   1.0000     -15.226043      -414.3217
   1   1.0000     -10.752251      -292.5836
   2   1.0000     -10.742695      -292.3236
   3   1.0000     -10.742695      -292.3236
   4   1.0000      -5.670169      -154.2931
   5   1.0000      -5.668372      -154.2443
   6   1.0000      -5.668372      -154.2443
   7   1.0000      -5.663338      -154.1073
   8   1.0000      -5.657244      -153.9414
   9   1.0000      -2.147441       -58.4348
  10   1.0000      -1.146720       -31.2038
  11   1.0000      -1.110137       -30.2084
  12   1.0000      -1.110137       -30.2084
  13   1.0000      -0.185607        -5.0506
  14   0.0000       0.024895         0.6774
  15   0.0000       0.035002         0.9524
  16   0.0000       0.035002         0.9524
  17   0.0000       0.100532         2.7356
  18   0.0000       0.151561         4.1242

E(0)                                       ...   -763.389870832
E(0)                                       ...   -763.389870832
E(CORR)                                    ...     -0.792528045
E(TOT)                                     ...   -764.182398878
E(CCSD(T))                                 ...   -764.206542162

MULLIKEN ATOMIC CHARGES AND SPIN DENSITIES
------------------------------------------
   0 Gd:    0.000000    8.000000
Sum of atomic charges       :    0.0000000

LOEWDIN ATOMIC CHARGES AND SPIN DENSITIES
-----------------------------------------
   0 Gd:    0.000000    8.000000

FINAL SINGLE POINT ENERGY      -764.206542161807

DIPOLE MOMENT
-------------
                                X             Y             Z
Electronic contribution:      0.00000      -0.00000      -0.00000
Nuclear contribution   :      0.00000       0.00000       0.00000
                        -----------------------------------------
Total Dipole Moment    :      0.00000      -0.00000      -0.00000
                        -----------------------------------------
Magnitude (a.u.)       :      0.00000
Magnitude (Debye)      :      0.00000

Rotational constants in cm-1:     0.000000     0.000000     0.000000
Rotational constants in MHz :     0.000000     0.000000     0.000000

                             ****ORCA TERMINATED NORMALLY****
TOTAL RUN TIME: 0 days 0 hours 1 minutes 23 seconds 726 msec
