                         Program Version 4.2.0 -  RELEASE  -
|  1> #
|  2> # 65_Tb CCSD(T)/Def2-SVP
|  3> #
|  4> ! CCSD(T) Def2-SVP verytightscf kdiis
|  5>
|  6> *xyz 0 6
|  7>  Tb 0.0 0.0 0.0
|  8> *
|  9>
| 10> %maxcore 5000
| 11>
| 12> %pal
| 13> nprocs 24
| 14> end
| 15>
| 16> %mdci
| 17> MaxDIIS 40
| 18> maxiter 200
| 19> end
| 20>
| 21>
| 22>                          ****END OF INPUT****

CARTESIAN COORDINATES (ANGSTROEM)
---------------------------------
  Tb     0.000000    0.000000    0.000000

 Total Charge           Charge          ....    0
 Multiplicity           Mult            ....    6
 Number of Electrons    NEL             ....   37
 Basis Dimension        Dim             ....   78

ORBITAL ENERGIES
----------------
                 SPIN UP ORBITALS
  NO   OCC          E(Eh)            E(eV)
   0   1.0000     -15.315704      -416.7615
   1   1.0000     -11.578155      -315.0576
   2   1.0000     -11.576578      -315.0147
   3   1.0000     -11.518055      -313.4222
   4   1.0000      -6.190722      -168.4581
   5   1.0000      -6.138283      -167.0312
   6   1.0000      -6.132004      -166.8603
   7   1.0000      -6.131005      -166.8331
   8   1.0000      -6.101012      -166.0170
   9   1.0000      -2.110230       -57.4223
  10   1.0000      -1.192542       -32.4507
  11   1.0000      -1.191885       -32.4329
  12   1.0000      -1.167575       -31.7713
  13   1.0000      -0.602173       -16.3860
  14   1.0000      -0.601991       -16.3810
  15   1.0000      -0.589160       -16.0319
  16   1.0000      -0.578345       -15.7376
  17   1.0000      -0.560232       -15.2447
  18   1.0000      -0.536554       -14.6004
  19   1.0000      -0.536011       -14.5856
  20   1.0000      -0.185211        -5.0398
  21   0.0000       0.026068         0.7093
  22   0.0000       0.026090         0.7100
  23   0.0000       0.027021         0.7353
  24   0.0000       0.102218         2.7815
  25   0.0000       0.143542         3.9060

                 SPIN DOWN ORBITALS
  NO   OCC          E(Eh)            E(eV)
   0   1.0000     -14.939280      -406.5185
   1   1.0000     -11.145118      -303.2741
   2   1.0000     -11.144825      -303.2661
   3   1.0000     -11.133971      -302.9707
   4   1.0000      -5.655958      -153.9064
   5   1.0000      -5.649526      -153.7314
   6   1.0000      -5.596538      -152.2895
   7   1.0000      -5.595789      -152.2692
   8   1.0000      -5.517680      -150.1437
   9   1.0000      -1.998108       -54.3713
  10   1.0000      -1.098458       -29.8906
  11   1.0000      -1.098152       -29.8822
  12   1.0000      -1.086796       -29.5732
  13   1.0000      -0.348061        -9.4712
  14   1.0000      -0.347988        -9.4692
  15   1.0000      -0.180150        -4.9021
  16   0.0000       0.027196         0.7401
  17   0.0000       0.027220         0.7407
  18   0.0000       0.028075         0.7640
  19   0.0000       0.105862         2.8807
  20   0.0000       0.164249         4.4694

E(0)                                       ...   -820.971748244
E(0)                                       ...   -820.971748244
E(CORR)                                    ...     -0.896733483
E(TOT)                                     ...   -821.868481726
E(CCSD(T))                                 ...   -821.918363456

MULLIKEN ATOMIC CHARGES AND SPIN DENSITIES
------------------------------------------
   0 Tb:    0.000000    5.000000
Sum of atomic charges       :    0.0000000

LOEWDIN ATOMIC CHARGES AND SPIN DENSITIES
-----------------------------------------
   0 Tb:    0.000000    5.000000

FINAL SINGLE POINT ENERGY      -821.918363455502

DIPOLE MOMENT
-------------
                                X             Y             Z
Electronic contribution:     -0.00000      -0.00000      -0.00000
Nuclear contribution   :      0.00000       0.00000       0.00000
                        -----------------------------------------
Total Dipole Moment    :     -0.00000      -0.00000      -0.00000
                        -----------------------------------------
Magnitude (a.u.)       :      0.00000
Magnitude (Debye)      :      0.00000

Rotational constants in cm-1:     0.000000     0.000000     0.000000
Rotational constants in MHz :     0.000000     0.000000     0.000000

                             ****ORCA TERMINATED NORMALLY****
TOTAL RUN TIME: 0 days 0 hours 2 minutes 45 seconds 542 msec
