                         Program Version 4.2.0 -  RELEASE  -
|  1> #
|  2> # 66_Dy CCSD(T)/Def2-SVP
|  3> #
|  4> ! CCSD(T) Def2-SVP tightscf
|  5>
|  6> *xyz 0 5
|  7>  Dy 0.0 0.0 0.0
|  8> *
|  9>
| 10> %maxcore 5000
| 11>
| 12> %pal
| 13> nprocs 24
| 14> end
| 15>
| 16>
| 17>                          ****END OF INPUT****

CARTESIAN COORDINATES (ANGSTROEM)
---------------------------------
  Dy     0.000000    0.000000    0.000000

 Total Charge           Charge          ....    0
 Multiplicity           Mult            ....    5
 Number of Electrons    NEL             ....   38
 Basis Dimension        Dim             ....   78

ORBITAL ENERGIES
----------------
                 SPIN UP ORBITALS
  NO   OCC          E(Eh)            E(eV)
   0   1.0000     -16.104620      -438.2290
   1   1.0000     -11.702413      -318.4389
   2   1.0000     -11.702410      -318.4388
   3   1.0000     -11.702408      -318.4387
   4   1.0000      -6.292389      -171.2246
   5   1.0000      -6.292389      -171.2246
   6   1.0000      -6.271057      -170.6441
   7   1.0000      -6.271053      -170.6440
   8   1.0000      -6.271050      -170.6439
   9   1.0000      -2.183543       -59.4172
  10   1.0000      -1.188406       -32.3382
  11   1.0000      -1.188404       -32.3381
  12   1.0000      -1.188404       -32.3381
  13   1.0000      -0.586666       -15.9640
  14   1.0000      -0.586666       -15.9640
  15   1.0000      -0.586666       -15.9640
  16   1.0000      -0.578653       -15.7460
  17   1.0000      -0.549171       -14.9437
  18   1.0000      -0.549170       -14.9437
  19   1.0000      -0.549169       -14.9436
  20   1.0000      -0.187880        -5.1125
  21   0.0000       0.030682         0.8349
  22   0.0000       0.030682         0.8349
  23   0.0000       0.030684         0.8350
  24   0.0000       0.106260         2.8915
  25   0.0000       0.146366         3.9828

                 SPIN DOWN ORBITALS
  NO   OCC          E(Eh)            E(eV)
   0   1.0000     -15.792388      -429.7327
   1   1.0000     -11.358842      -309.0898
   2   1.0000     -11.358841      -309.0898
   3   1.0000     -11.358840      -309.0898
   4   1.0000      -5.859965      -159.4578
   5   1.0000      -5.859960      -159.4576
   6   1.0000      -5.859954      -159.4575
   7   1.0000      -5.803145      -157.9116
   8   1.0000      -5.803145      -157.9116
   9   1.0000      -2.092285       -56.9340
  10   1.0000      -1.117313       -30.4036
  11   1.0000      -1.117313       -30.4036
  12   1.0000      -1.117312       -30.4036
  13   1.0000      -0.406305       -11.0561
  14   1.0000      -0.406305       -11.0561
  15   1.0000      -0.406304       -11.0561
  16   1.0000      -0.183958        -5.0058
  17   0.0000       0.031754         0.8641
  18   0.0000       0.031756         0.8641
  19   0.0000       0.031757         0.8641
  20   0.0000       0.109138         2.9698
  21   0.0000       0.158967         4.3257

E(0)                                       ...   -881.702765857
E(0)                                       ...   -881.702765857
E(CORR)                                    ...     -0.909624457
E(TOT)                                     ...   -882.612390313
E(CCSD(T))                                 ...   -882.657326613

MULLIKEN ATOMIC CHARGES AND SPIN DENSITIES
------------------------------------------
   0 Dy:   -0.000000    4.000000
Sum of atomic charges       :   -0.0000000

LOEWDIN ATOMIC CHARGES AND SPIN DENSITIES
-----------------------------------------
   0 Dy:   -0.000000    4.000000

FINAL SINGLE POINT ENERGY      -882.657326612645

DIPOLE MOMENT
-------------
                                X             Y             Z
Electronic contribution:     -0.00000      -0.00000       0.00000
Nuclear contribution   :      0.00000       0.00000       0.00000
                        -----------------------------------------
Total Dipole Moment    :     -0.00000      -0.00000       0.00000
                        -----------------------------------------
Magnitude (a.u.)       :      0.00000
Magnitude (Debye)      :      0.00000

Rotational constants in cm-1:     0.000000     0.000000     0.000000
Rotational constants in MHz :     0.000000     0.000000     0.000000

                             ****ORCA TERMINATED NORMALLY****
TOTAL RUN TIME: 0 days 0 hours 2 minutes 1 seconds 194 msec
