                         Program Version 4.2.0 -  RELEASE  -
|  1> #
|  2> # 67_Ho CCSD(T)/Def2-SVP
|  3> #
|  4> ! CCSD(T) Def2-SVP verytightscf kdiis
|  5>
|  6> *xyz 0 4
|  7>  Ho 0.0 0.0 0.0
|  8> *
|  9>
| 10> %maxcore 5000
| 11>
| 12> %pal
| 13> nprocs 24
| 14> end
| 15>
| 16> %scf
| 17> maxiter 300
| 18> directresetfreq 1
| 19> diismaxeq 40
| 20> end
| 21>
| 22>
| 23>                          ****END OF INPUT****

CARTESIAN COORDINATES (ANGSTROEM)
---------------------------------
  Ho     0.000000    0.000000    0.000000

 Total Charge           Charge          ....    0
 Multiplicity           Mult            ....    4
 Number of Electrons    NEL             ....   39
 Basis Dimension        Dim             ....   78

ORBITAL ENERGIES
----------------
                 SPIN UP ORBITALS
  NO   OCC          E(Eh)            E(eV)
   0   1.0000     -17.156091      -466.8410
   1   1.0000     -11.931426      -324.6706
   2   1.0000     -11.931423      -324.6705
   3   1.0000     -11.931422      -324.6705
   4   1.0000      -6.346348      -172.6929
   5   1.0000      -6.346344      -172.6928
   6   1.0000      -6.346342      -172.6927
   7   1.0000      -6.325234      -172.1184
   8   1.0000      -6.325233      -172.1183
   9   1.0000      -2.272190       -61.8294
  10   1.0000      -1.198122       -32.6026
  11   1.0000      -1.198121       -32.6025
  12   1.0000      -1.198120       -32.6025
  13   1.0000      -0.581931       -15.8351
  14   1.0000      -0.581930       -15.8351
  15   1.0000      -0.581928       -15.8351
  16   1.0000      -0.550987       -14.9931
  17   1.0000      -0.543485       -14.7890
  18   1.0000      -0.543484       -14.7890
  19   1.0000      -0.543484       -14.7890
  20   1.0000      -0.189957        -5.1690
  21   0.0000       0.038660         1.0520
  22   0.0000       0.038660         1.0520
  23   0.0000       0.038660         1.0520
  24   0.0000       0.109084         2.9683
  25   0.0000       0.165436         4.5017

                 SPIN DOWN ORBITALS
  NO   OCC          E(Eh)            E(eV)
   0   1.0000     -16.912692      -460.2177
   1   1.0000     -11.665491      -317.4341
   2   1.0000     -11.665490      -317.4341
   3   1.0000     -11.665490      -317.4341
   4   1.0000      -6.029560      -164.0727
   5   1.0000      -6.029559      -164.0726
   6   1.0000      -5.973567      -162.5490
   7   1.0000      -5.973563      -162.5489
   8   1.0000      -5.973556      -162.5487
   9   1.0000      -2.201714       -59.9117
  10   1.0000      -1.145026       -31.1577
  11   1.0000      -1.145025       -31.1577
  12   1.0000      -1.145025       -31.1577
  13   1.0000      -0.475817       -12.9476
  14   1.0000      -0.421161       -11.4604
  15   1.0000      -0.421157       -11.4603
  16   1.0000      -0.421155       -11.4602
  17   1.0000      -0.187067        -5.0904
  18   0.0000       0.039877         1.0851
  19   0.0000       0.039877         1.0851
  20   0.0000       0.039877         1.0851
  21   0.0000       0.111203         3.0260
  22   0.0000       0.174675         4.7531

E(0)                                       ...   -945.449811585
E(0)                                       ...   -945.449811585
E(CORR)                                    ...     -0.967114602
E(TOT)                                     ...   -946.416926187
E(CCSD(T))                                 ...   -946.459711182

MULLIKEN ATOMIC CHARGES AND SPIN DENSITIES
------------------------------------------
   0 Ho:    0.000000    3.000000
Sum of atomic charges       :    0.0000000

LOEWDIN ATOMIC CHARGES AND SPIN DENSITIES
-----------------------------------------
   0 Ho:    0.000000    3.000000

FINAL SINGLE POINT ENERGY      -946.459711181682

DIPOLE MOMENT
-------------
                                X             Y             Z
Electronic contribution:     -0.00000      -0.00000      -0.00000
Nuclear contribution   :      0.00000       0.00000       0.00000
                        -----------------------------------------
Total Dipole Moment    :     -0.00000      -0.00000      -0.00000
                        -----------------------------------------
Magnitude (a.u.)       :      0.00000
Magnitude (Debye)      :      0.00000

Rotational constants in cm-1:     0.000000     0.000000     0.000000
Rotational constants in MHz :     0.000000     0.000000     0.000000

                             ****ORCA TERMINATED NORMALLY****
TOTAL RUN TIME: 0 days 0 hours 1 minutes 3 seconds 12 msec
