                         Program Version 4.2.0 -  RELEASE  -
|  1> #
|  2> # 69_Tm CCSD(T)/Def2-SVP
|  3> #
|  4> ! CCSD(T) Def2-SVP tightscf
|  5>
|  6> *xyz 0 2
|  7>  Tm 0.0 0.0 0.0
|  8> *
|  9>
| 10> %maxcore 5000
| 11>
| 12> %pal
| 13> nprocs 24
| 14> end
| 15>
| 16>
| 17>                          ****END OF INPUT****

CARTESIAN COORDINATES (ANGSTROEM)
---------------------------------
  Tm     0.000000    0.000000    0.000000

 Total Charge           Charge          ....    0
 Multiplicity           Mult            ....    2
 Number of Electrons    NEL             ....   41
 Basis Dimension        Dim             ....   81

ORBITAL ENERGIES
----------------
                 SPIN UP ORBITALS
  NO   OCC          E(Eh)            E(eV)
   0   1.0000     -18.281619      -497.4682
   1   1.0000     -12.471723      -339.3728
   2   1.0000     -12.469952      -339.3247
   3   1.0000     -12.447539      -338.7147
   4   1.0000      -6.335377      -172.3944
   5   1.0000      -6.329712      -172.2402
   6   1.0000      -6.306219      -171.6009
   7   1.0000      -6.244427      -169.9195
   8   1.0000      -6.226034      -169.4190
   9   1.0000      -2.373100       -64.5753
  10   1.0000      -1.269728       -34.5511
  11   1.0000      -1.268530       -34.5185
  12   1.0000      -1.244274       -33.8584
  13   1.0000      -0.608847       -16.5676
  14   1.0000      -0.524921       -14.2838
  15   1.0000      -0.515493       -14.0273
  16   1.0000      -0.506954       -13.7949
  17   1.0000      -0.506456       -13.7814
  18   1.0000      -0.503972       -13.7138
  19   1.0000      -0.257791        -7.0149
  20   1.0000      -0.143318        -3.8999
  21   0.0000       0.002697         0.0734
  22   0.0000       0.004452         0.1212
  23   0.0000       0.091107         2.4792
  24   0.0000       0.129819         3.5326
  25   0.0000       0.130652         3.5552

                 SPIN DOWN ORBITALS
  NO   OCC          E(Eh)            E(eV)
   0   1.0000     -18.367730      -499.8114
   1   1.0000     -12.605942      -343.0251
   2   1.0000     -12.595121      -342.7307
   3   1.0000     -12.470055      -339.3274
   4   1.0000      -6.474721      -176.1861
   5   1.0000      -6.468077      -176.0053
   6   1.0000      -6.372475      -173.4039
   7   1.0000      -6.370180      -173.3414
   8   1.0000      -6.359165      -173.0417
   9   1.0000      -2.385885       -64.9232
  10   1.0000      -1.288946       -35.0740
  11   1.0000      -1.284509       -34.9533
  12   1.0000      -1.240839       -33.7649
  13   1.0000      -0.668236       -18.1836
  14   1.0000      -0.630536       -17.1578
  15   1.0000      -0.574944       -15.6450
  16   1.0000      -0.573498       -15.6057
  17   1.0000      -0.546928       -14.8827
  18   1.0000      -0.543582       -14.7916
  19   1.0000      -0.536524       -14.5996
  20   0.0000      -0.012050        -0.3279
  21   0.0000       0.039313         1.0698
  22   0.0000       0.040466         1.1011
  23   0.0000       0.060036         1.6337
  24   0.0000       0.125400         3.4123

E(0)                                       ...  -1082.279968081
E(0)                                       ...  -1082.279968081
E(CORR)                                    ...     -1.031506818
E(TOT)                                     ...  -1083.311474899
E(CCSD(T))                                 ...  -1083.355322335

MULLIKEN ATOMIC CHARGES AND SPIN DENSITIES
------------------------------------------
   0 Tm:   -0.000000    1.000000
Sum of atomic charges       :   -0.0000000

LOEWDIN ATOMIC CHARGES AND SPIN DENSITIES
-----------------------------------------
   0 Tm:   -0.000000    1.000000

FINAL SINGLE POINT ENERGY     -1083.355322335254

DIPOLE MOMENT
-------------
                                X             Y             Z
Electronic contribution:     -0.00000       0.00000      -0.00000
Nuclear contribution   :      0.00000       0.00000       0.00000
                        -----------------------------------------
Total Dipole Moment    :     -0.00000       0.00000      -0.00000
                        -----------------------------------------
Magnitude (a.u.)       :      0.00000
Magnitude (Debye)      :      0.00000

Rotational constants in cm-1:     0.000000     0.000000     0.000000
Rotational constants in MHz :     0.000000     0.000000     0.000000

                             ****ORCA TERMINATED NORMALLY****
TOTAL RUN TIME: 0 days 0 hours 3 minutes 3 seconds 218 msec
