                         Program Version 4.2.0 -  RELEASE  -
|  1> #
|  2> # 70_Yb CCSD(T)/Def2-SVP
|  3> #
|  4> ! CCSD(T) Def2-SVP tightscf
|  5>
|  6> *xyz 0 1
|  7>  Yb 0.0 0.0 0.0
|  8> *
|  9>
| 10> %maxcore 5000
| 11>
| 12> %pal
| 13> nprocs 24
| 14> end
| 15>
| 16>
| 17>                          ****END OF INPUT****

CARTESIAN COORDINATES (ANGSTROEM)
---------------------------------
  Yb     0.000000    0.000000    0.000000

 Total Charge           Charge          ....    0
 Multiplicity           Mult            ....    1
 Number of Electrons    NEL             ....   42
 Basis Dimension        Dim             ....   81

ORBITAL ENERGIES
----------------

  NO   OCC          E(Eh)            E(eV)
   0   2.0000     -18.802752      -511.6489
   1   2.0000     -12.947090      -352.3082
   2   2.0000     -12.947090      -352.3082
   3   2.0000     -12.947090      -352.3082
   4   2.0000      -6.212371      -169.0472
   5   2.0000      -6.212371      -169.0472
   6   2.0000      -6.212371      -169.0472
   7   2.0000      -6.212371      -169.0472
   8   2.0000      -6.212371      -169.0472
   9   2.0000      -2.377137       -64.6852
  10   2.0000      -1.270666       -34.5766
  11   2.0000      -1.270666       -34.5766
  12   2.0000      -1.270666       -34.5766
  13   2.0000      -0.527204       -14.3460
  14   2.0000      -0.527204       -14.3460
  15   2.0000      -0.527204       -14.3460
  16   2.0000      -0.527204       -14.3460
  17   2.0000      -0.527204       -14.3460
  18   2.0000      -0.527204       -14.3460
  19   2.0000      -0.527204       -14.3460
  20   2.0000      -0.192948        -5.2504
  21   0.0000       0.025200         0.6857
  22   0.0000       0.025200         0.6857
  23   0.0000       0.025200         0.6857
  24   0.0000       0.110728         3.0130
  25   0.0000       0.192408         5.2357

E(0)                                       ...  -1155.651963091
E(0)                                       ...  -1155.651963091
E(CORR)                                    ...     -1.024570359
E(TOT)                                     ...  -1156.676533450
E(CCSD(T))                                 ...  -1156.728289742

MULLIKEN ATOMIC CHARGES
-----------------------
   0 Yb:    0.000000
Sum of atomic charges:    0.0000000

LOEWDIN ATOMIC CHARGES
----------------------
   0 Yb:   -0.000000

FINAL SINGLE POINT ENERGY     -1156.728289741902

DIPOLE MOMENT
-------------
                                X             Y             Z
Electronic contribution:     -0.00000      -0.00000       0.00000
Nuclear contribution   :      0.00000       0.00000       0.00000
                        -----------------------------------------
Total Dipole Moment    :     -0.00000      -0.00000       0.00000
                        -----------------------------------------
Magnitude (a.u.)       :      0.00000
Magnitude (Debye)      :      0.00000

Rotational constants in cm-1:     0.000000     0.000000     0.000000
Rotational constants in MHz :     0.000000     0.000000     0.000000

                             ****ORCA TERMINATED NORMALLY****
TOTAL RUN TIME: 0 days 0 hours 0 minutes 31 seconds 521 msec
