                         Program Version 4.2.0 -  RELEASE  -
|  1> #
|  2> # 71_Lu CCSD(T)/Def2-SVP
|  3> #
|  4> ! CCSD(T) Def2-SVP tightscf
|  5>
|  6> *xyz 0 2
|  7>  Lu 0.0 0.0 0.0
|  8> *
|  9>
| 10> %maxcore 5000
| 11>
| 12> %pal
| 13> nprocs 24
| 14> end
| 15>
| 16>
| 17>                          ****END OF INPUT****

CARTESIAN COORDINATES (ANGSTROEM)
---------------------------------
  Lu     0.000000    0.000000    0.000000

 Total Charge           Charge          ....    0
 Multiplicity           Mult            ....    2
 Number of Electrons    NEL             ....   43
 Basis Dimension        Dim             ....   81

ORBITAL ENERGIES
----------------
                 SPIN UP ORBITALS
  NO   OCC          E(Eh)            E(eV)
   0   1.0000     -20.493097      -557.6455
   1   1.0000     -13.726168      -373.5080
   2   1.0000     -13.726168      -373.5080
   3   1.0000     -13.722985      -373.4214
   4   1.0000      -6.713856      -182.6933
   5   1.0000      -6.713856      -182.6933
   6   1.0000      -6.710957      -182.6144
   7   1.0000      -6.710957      -182.6144
   8   1.0000      -6.710142      -182.5922
   9   1.0000      -2.843520       -77.3761
  10   1.0000      -1.549279       -42.1580
  11   1.0000      -1.549052       -42.1519
  12   1.0000      -1.549052       -42.1519
  13   1.0000      -0.957869       -26.0649
  14   1.0000      -0.957869       -26.0649
  15   1.0000      -0.955108       -25.9898
  16   1.0000      -0.955108       -25.9898
  17   1.0000      -0.953276       -25.9400
  18   1.0000      -0.953276       -25.9400
  19   1.0000      -0.952658       -25.9231
  20   1.0000      -0.308871        -8.4048
  21   1.0000      -0.165739        -4.5100
  22   0.0000       0.011210         0.3050
  23   0.0000       0.011210         0.3050
  24   0.0000       0.058689         1.5970
  25   0.0000       0.060702         1.6518
  26   0.0000       0.060702         1.6518

                 SPIN DOWN ORBITALS
  NO   OCC          E(Eh)            E(eV)
   0   1.0000     -20.492131      -557.6192
   1   1.0000     -13.724708      -373.4683
   2   1.0000     -13.724708      -373.4683
   3   1.0000     -13.722212      -373.4004
   4   1.0000      -6.712572      -182.6584
   5   1.0000      -6.712572      -182.6584
   6   1.0000      -6.710364      -182.5983
   7   1.0000      -6.710238      -182.5949
   8   1.0000      -6.710238      -182.5949
   9   1.0000      -2.840027       -77.2811
  10   1.0000      -1.549353       -42.1600
  11   1.0000      -1.549353       -42.1600
  12   1.0000      -1.539166       -41.8828
  13   1.0000      -0.956610       -26.0307
  14   1.0000      -0.956610       -26.0307
  15   1.0000      -0.954392       -25.9703
  16   1.0000      -0.954392       -25.9703
  17   1.0000      -0.953058       -25.9340
  18   1.0000      -0.953058       -25.9340
  19   1.0000      -0.952623       -25.9222
  20   1.0000      -0.271724        -7.3940
  21   0.0000       0.014356         0.3907
  22   0.0000       0.014356         0.3907
  23   0.0000       0.047348         1.2884
  24   0.0000       0.060847         1.6557
  25   0.0000       0.060847         1.6557

E(0)                                       ...  -1232.337509059
E(0)                                       ...  -1232.337509059
E(CORR)                                    ...     -0.674463697
E(TOT)                                     ...  -1233.011972756
E(CCSD(T))                                 ...  -1233.048996801

MULLIKEN ATOMIC CHARGES AND SPIN DENSITIES
------------------------------------------
   0 Lu:   -0.000000    1.000000
Sum of atomic charges       :   -0.0000000

LOEWDIN ATOMIC CHARGES AND SPIN DENSITIES
-----------------------------------------
   0 Lu:   -0.000000    1.000000

FINAL SINGLE POINT ENERGY     -1233.048996801114

DIPOLE MOMENT
-------------
                                X             Y             Z
Electronic contribution:      0.00000       0.00000      -0.00000
Nuclear contribution   :      0.00000       0.00000       0.00000
                        -----------------------------------------
Total Dipole Moment    :      0.00000       0.00000      -0.00000
                        -----------------------------------------
Magnitude (a.u.)       :      0.00000
Magnitude (Debye)      :      0.00000

Rotational constants in cm-1:     0.000000     0.000000     0.000000
Rotational constants in MHz :     0.000000     0.000000     0.000000

                             ****ORCA TERMINATED NORMALLY****
TOTAL RUN TIME: 0 days 0 hours 0 minutes 43 seconds 981 msec
