                         Program Version 4.2.0 -  RELEASE  -
|  1> # input to generate an atomic fitting density for Hf
|  2> # this file is use internally by ORCA
|  3> #
|  4> # atomic ground state (S=3): 1s2 2s2 2p6 3s2 3p6 4s2 3d10 4p6 5s2 4d10 5p6 6s2 4f14 5d2
|  5> #
|  6> ! RHF AllowRHF def2-SVP def2/J  NoMulliken NoLoewdin NoMayer NoPrintMOs
|  7>
|  8> %output print[p_atomdensfit] 2 end
|  9>
| 10> %scf
| 11>   guess hcore
| 12>   maxiter 1000
| 13>   maxdisk 500000
| 14>   SCFMode Conventional
| 15>   lshift 0.200000
| 16>   hftyp rohf
| 17>   rohf_case sahf
| 18>   rohf_numop   2
| 19>   rohf_norb[1] 5
| 20>   rohf_nel[1]  2
| 21> end
| 22>
| 23> %basis
| 24>   NewECP 72
| 25>     N_core 60
| 26>     lmax f
| 27>     s 3
| 28>       1      14.7699590000   1499.2847107000  2
| 29>       2       7.3849794000     40.2821014000  2
| 30>       3       1.7857698000    -10.0467225000  2
| 31>     p 3
| 32>       1       9.8494895000    397.7330053000  2
| 33>       2       4.9247445000     19.3164059000  2
| 34>       3       1.7857698000    -10.0467225000  2
| 35>     d 3
| 36>       1       6.0967564000    101.3298053000  2
| 37>       2       3.0483782000      5.8734382000  2
| 38>       3       1.7857698000    -10.0467225000  2
| 39>     f 1
| 40>       1       1.7857698000     10.0467225000  2
| 41>   end
| 42>   NewGTO 72
| 43>     s 2
| 44>      1      14.5924850000     -1.0819410429
| 45>      2      11.5474910000      2.0589671501
| 46>     s 1
| 47>      1       4.9112973928      1.0000000000
| 48>     s 1
| 49>      1       0.7966546941      1.0000000000
| 50>     s 1
| 51>      1       0.3423407289      1.0000000000
| 52>     s 1
| 53>      1       0.0981091977      1.0000000000
| 54>     s 1
| 55>      1       0.0361909844      1.0000000000
| 56>     p 4
| 57>      1       6.7265310000      0.7143914513
| 58>      2       5.9599790000     -0.9189874315
| 59>      3       1.0921117054      0.5551512588
| 60>      4       0.4970282322      0.5704639534
| 61>     p 1
| 62>      1       0.2025897379      1.0000000000
| 63>     p 1
| 64>      1       0.0336000000      1.0000000000
| 65>     d 4
| 66>      1       3.9820623229     -0.0478543287
| 67>      2       1.3077987772      0.2075486429
| 68>      3       0.5327231030      0.4677020499
| 69>      4       0.2056495449      0.4985918966
| 70>     d 1
| 71>      1       0.0730998588      1.0000000000
| 72>   end
| 73>   NewAuxGTO 72
| 74>     S 1
| 75>      1 1310.72 1.0
| 76>     S 1
| 77>      1  655.36 1.0
| 78>     S 1
| 79>      1  327.68 1.0
| 80>     S 1
| 81>      1  163.84 1.0
| 82>     S 1
| 83>      1   81.82 1.0
| 84>     S 1
| 85>      1   40.96 1.0
| 86>     S 1
| 87>      1   20.48 1.0
| 88>     S 1
| 89>      1   10.24 1.0
| 90>     S 1
| 91>      1    5.12 1.0
| 92>     S 1
| 93>      1    2.56 1.0
| 94>     S 1
| 95>      1    1.28 1.0
| 96>     S 1
| 97>      1    0.64 1.0
| 98>     S 1
| 99>      1    0.32 1.0
|100>     S 1
|101>      1    0.16 1.0
|102>     S 1
|103>      1    0.08 1.0
|104>     S 1
|105>      1    0.04 1.0
|106>     S 1
|107>      1    0.02 1.0
|108>     S 1
|109>      1    0.01 1.0
|110>   end
|111> end
|112>
|113> * xyz 0 3
|114> 72  0.0 0.0 0.0
|115> *
|116>
|117>
|118>                          ****END OF INPUT****

CARTESIAN COORDINATES (ANGSTROEM)
---------------------------------
  Hf     0.000000    0.000000    0.000000

 Total Charge           Charge          ....    0
 Multiplicity           Mult            ....    3
 Number of Electrons    NEL             ....   12
 Basis Dimension        Dim             ....   25

ORBITAL ENERGIES
----------------

  NO   OCC          E(Eh)            E(eV)
   0   2.0000      -3.079657       -83.8017
   1   2.0000      -1.734007       -47.1847
   2   2.0000      -1.734006       -47.1847
   3   2.0000      -1.733995       -47.1844
   4   2.0000      -0.346512        -9.4291
   5   0.4000      -0.327069        -8.9000
   6   0.4000      -0.327047        -8.8994
   7   0.4000      -0.169199        -4.6041
   8   0.4000      -0.169199        -4.6041
   9   0.4000      -0.169195        -4.6040
  10   0.0000      -0.224034        -6.0963
  11   0.0000      -0.224023        -6.0960
  12   0.0000      -0.224023        -6.0960
  13   0.0000      -0.018459        -0.5023
  14   0.0000       0.074596         2.0298

CleanUpVectors: The p-vectors have cracked symmetry
CleanUpVectors: The p-vectors have cracked symmetry
CleanUpVectors: The p-vectors have cracked symmetry
CleanUpVectors: The d-vectors have cracked symmetry at i=5
CleanUpVectors: The d-vectors have cracked symmetry at i=6
CleanUpVectors: The d-vectors have cracked symmetry at i=10
CleanUpVectors: The d-vectors have cracked symmetry at i=11
CleanUpVectors: The d-vectors have cracked symmetry at i=12
CleanUpVectors: The d-vectors have cracked symmetry at i=14
CleanUpVectors: The d-vectors have cracked symmetry at i=15
CleanUpVectors: The d-vectors have cracked symmetry at i=16
CleanUpVectors: The d-vectors have cracked symmetry at i=17
CleanUpVectors: The d-vectors have cracked symmetry at i=18
CleanUpVectors: The p-vectors have cracked symmetry
CleanUpVectors: The p-vectors have cracked symmetry
CleanUpVectors: The p-vectors have cracked symmetry
--------------------------
ATOM BASIS FOR ELEMENT Hf
--------------------------
 NewGTO Hf
 S 7
    1         14.592485000000        -0.410480004934
    2         11.547491000000         0.781156100398
    3          4.911297392800        -0.846737725715
    4          0.796654694100         0.982491468942
    5          0.342340728900         0.277456671120
    6          0.098109197700        -0.000868075853
    7          0.036190984400         0.000747629551
 P 18
    1          6.726531000000        -0.472443200371
    2          5.959979000000         0.607747142618
    3          1.092111705400        -0.367134064833
    4          0.497028232200        -0.377260695589
    5          6.726531000000         0.454155408153
    6          5.959979000000        -0.584221873429
    7          1.092111705400         0.352922681351
    8          0.497028232200         0.362657320607
    9          6.726531000000        -0.108781949066
   10          5.959979000000         0.139936226538
   11          1.092111705400        -0.084534096606
   12          0.497028232200        -0.086865794110
   13          0.202589737900        -0.070850041730
   14          0.202589737900         0.068107509208
   15          0.202589737900        -0.016313507369
   16          0.033600000000        -0.001059021736
   17          0.033600000000         0.001018028090
   18          0.033600000000        -0.000243844019
 S 7
    1         14.592485000000        -0.154111403983
    2         11.547491000000         0.293278751498
    3          4.911297392800        -0.328449657660
    4          0.796654694100         0.556862685221
    5          0.342340728900         0.254595310586
    6          0.098109197700        -0.942828183041
    7          0.036190984400        -0.321405960173
 D 18
    1         14.592485000000         0.000000537841
    2         11.547491000000        -0.000001293425
    3          4.911297392800         0.000003417744
    4          0.796654694100        -0.000034669463
    5          0.342340728900        -0.000047732640
    6          0.098109197700         0.000617509482
    7          0.036190984400        -0.000033751522
    8          3.982062322900        -0.007187722220
    9          1.307798777200         0.031173815050
   10          0.532723103000         0.070248867921
   11          0.205649544900         0.074888524218
   12          3.982062322900         0.040753699126
   13          1.307798777200        -0.176752556697
   14          0.532723103000        -0.398304377890
   15          0.205649544900        -0.424610786373
   16          3.982062322900        -0.008971698257
   17          1.307798777200         0.038911083875
   18          0.532723103000         0.087684474529
 D 18
    1         14.592485000000        -0.000000255352
    2         11.547491000000         0.000000614081
    3          4.911297392800        -0.000001599534
    4          0.796654694100         0.000016398514
    5          0.342340728900         0.000008929222
    6          0.098109197700        -0.000020634302
    7          0.036190984400        -0.000934310634
    8          3.982062322900         0.020612656740
    9          1.307798777200        -0.089398995852
   10          0.532723103000        -0.201456839393
   11          0.205649544900        -0.214762256563
   12          3.982062322900         0.013796892839
   13          1.307798777200        -0.059838398382
   14          0.532723103000        -0.134843288759
   15          0.205649544900        -0.143749147776
   16          3.982062322900         0.000377370350
   17          1.307798777200        -0.001636690060
   18          0.532723103000        -0.003688211521
 D 18
    1          3.982062322900        -0.001964796763
    2          1.307798777200         0.008521505008
    3          0.532723103000         0.019202849532
    4          0.205649544900         0.020471120814
    5          3.982062322900         0.006283854792
    6          1.307798777200        -0.027253658543
    7          0.532723103000        -0.061414961764
    8          0.205649544900        -0.065471173950
    9          3.982062322900         0.026347393235
   10          1.307798777200        -0.114271077633
   11          0.532723103000        -0.257505019096
   12          0.205649544900        -0.274512193997
   13          3.982062322900        -0.011119093487
   14          1.307798777200         0.048224535297
   15          0.532723103000         0.108671941665
   16          0.205649544900         0.115849288053
   17          3.982062322900        -0.024382798974
   18          1.307798777200         0.105750450893
 D 18
    1          3.982062322900        -0.001904741292
    2          1.307798777200         0.008261038888
    3          0.532723103000         0.018615900196
    4          0.205649544900         0.019845405825
    5          3.982062322900         0.006091783244
    6          1.307798777200        -0.026420626502
    7          0.532723103000        -0.059537759447
    8          0.205649544900        -0.063469989940
    9          3.982062322900         0.025542062284
   10          1.307798777200        -0.110778282924
   11          0.532723103000        -0.249634154597
   12          0.205649544900        -0.266121490430
   13          3.982062322900        -0.010779228023
   14          1.307798777200         0.046750507391
   15          0.532723103000         0.105350282398
   16          0.205649544900         0.112308246499
   17          3.982062322900        -0.023637516169
   18          1.307798777200         0.102518090539
 end
  // -----------------------------------------------
  // The basis set
  // -----------------------------------------------
  BAS[ATNO] = new BFNGauss[NSH];
  // Basis function   1 L = s
  InitBFNGauss(BAS[ATNO][  0]);
  BAS[ATNO][  0].l  = 0;
  BAS[ATNO][  0].ng = 7;
  BAS[ATNO][  0].a[  0] =        14.592485000000;     BAS[ATNO][  0].d[  0] =        -0.410480004934;
  BAS[ATNO][  0].a[  1] =        11.547491000000;     BAS[ATNO][  0].d[  1] =         0.781156100398;
  BAS[ATNO][  0].a[  2] =         4.911297392800;     BAS[ATNO][  0].d[  2] =        -0.846737725715;
  BAS[ATNO][  0].a[  3] =         0.796654694100;     BAS[ATNO][  0].d[  3] =         0.982491468942;
  BAS[ATNO][  0].a[  4] =         0.342340728900;     BAS[ATNO][  0].d[  4] =         0.277456671120;
  BAS[ATNO][  0].a[  5] =         0.098109197700;     BAS[ATNO][  0].d[  5] =        -0.000868075853;
  BAS[ATNO][  0].a[  6] =         0.036190984400;     BAS[ATNO][  0].d[  6] =         0.000747629551;

FINAL SINGLE POINT ENERGY       -47.226758609533

DIPOLE MOMENT
-------------
                                X             Y             Z
Electronic contribution:     -0.00000       0.00000      -0.00000
Nuclear contribution   :      0.00000       0.00000       0.00000
                        -----------------------------------------
Total Dipole Moment    :     -0.00000       0.00000      -0.00000
                        -----------------------------------------
Magnitude (a.u.)       :      0.00000
Magnitude (Debye)      :      0.00000

Rotational constants in cm-1:     0.000000     0.000000     0.000000
Rotational constants in MHz :     0.000000     0.000000     0.000000

                             ****ORCA TERMINATED NORMALLY****
TOTAL RUN TIME: 0 days 0 hours 0 minutes 1 seconds 970 msec
