                         Program Version 4.2.0 -  RELEASE  -
|  1> #
|  2> # 73_Ta CCSD(T)/Def2-SVP
|  3> #
|  4> ! CCSD(T) Def2-SVP tightscf
|  5>
|  6> *xyz 0 4
|  7>  Ta 0.0 0.0 0.0
|  8> *
|  9>
| 10> %maxcore 5000
| 11>
| 12> %pal
| 13> nprocs 24
| 14> end
| 15>
| 16> %method
| 17> NewNCore Ta 60 end
| 18> end
| 19>
| 20>
| 21>                          ****END OF INPUT****

CARTESIAN COORDINATES (ANGSTROEM)
---------------------------------
  Ta     0.000000    0.000000    0.000000

 Total Charge           Charge          ....    0
 Multiplicity           Mult            ....    4
 Number of Electrons    NEL             ....   13
 Basis Dimension        Dim             ....   32

ORBITAL ENERGIES
----------------
                 SPIN UP ORBITALS
  NO   OCC          E(Eh)            E(eV)
   0   1.0000      -3.185483       -86.6814
   1   1.0000      -1.790956       -48.7344
   2   1.0000      -1.790956       -48.7344
   3   1.0000      -1.790955       -48.7344
   4   1.0000      -0.326240        -8.8774
   5   1.0000      -0.326239        -8.8774
   6   1.0000      -0.326236        -8.8773
   7   1.0000      -0.282165        -7.6781
   8   0.0000       0.039394         1.0720
   9   0.0000       0.039399         1.0721
  10   0.0000       0.039399         1.0721
  11   0.0000       0.080605         2.1934
  12   0.0000       0.080610         2.1935

                 SPIN DOWN ORBITALS
  NO   OCC          E(Eh)            E(eV)
   0   1.0000      -3.081212       -83.8440
   1   1.0000      -1.631850       -44.4049
   2   1.0000      -1.631848       -44.4048
   3   1.0000      -1.631847       -44.4048
   4   1.0000      -0.217639        -5.9223
   5   0.0000       0.052016         1.4154
   6   0.0000       0.052016         1.4154
   7   0.0000       0.052021         1.4156
   8   0.0000       0.119493         3.2516
   9   0.0000       0.119498         3.2517

E(0)                                       ...    -56.285806863
E(0)                                       ...    -56.285806863
E(CORR)                                    ...     -0.178118388
E(TOT)                                     ...    -56.463925250
E(CCSD(T))                                 ...    -56.469270441

MULLIKEN ATOMIC CHARGES AND SPIN DENSITIES
------------------------------------------
   0 Ta:    0.000000    3.000000
Sum of atomic charges       :    0.0000000

LOEWDIN ATOMIC CHARGES AND SPIN DENSITIES
-----------------------------------------
   0 Ta:    0.000000    3.000000

FINAL SINGLE POINT ENERGY       -56.469270441269

DIPOLE MOMENT
-------------
                                X             Y             Z
Electronic contribution:     -0.00000      -0.00000       0.00000
Nuclear contribution   :      0.00000       0.00000       0.00000
                        -----------------------------------------
Total Dipole Moment    :     -0.00000      -0.00000       0.00000
                        -----------------------------------------
Magnitude (a.u.)       :      0.00000
Magnitude (Debye)      :      0.00000

Rotational constants in cm-1:     0.000000     0.000000     0.000000
Rotational constants in MHz :     0.000000     0.000000     0.000000

                             ****ORCA TERMINATED NORMALLY****
TOTAL RUN TIME: 0 days 0 hours 1 minutes 57 seconds 648 msec
