                         Program Version 4.2.0 -  RELEASE  -
|  1> # input to generate an atomic fitting density for Ta
|  2> # this file is use internally by ORCA
|  3> #
|  4> # atomic ground state (S=4): 1s2 2s2 2p6 3s2 3p6 4s2 3d10 4p6 5s2 4d10 5p6 6s2 4f14 5d3
|  5> #
|  6> ! RHF AllowRHF def2-SVP def2/J  NoMulliken NoLoewdin NoMayer NoPrintMOs
|  7>
|  8> %output print[p_atomdensfit] 2 end
|  9>
| 10> %scf
| 11>   guess hcore
| 12>   maxiter 1000
| 13>   maxdisk 500000
| 14>   SCFMode Conventional
| 15>   lshift 0.200000
| 16>   hftyp rohf
| 17>   rohf_case sahf
| 18>   rohf_numop   2
| 19>   rohf_norb[1] 5
| 20>   rohf_nel[1]  3
| 21> end
| 22>
| 23> %basis
| 24>   NewECP 73
| 25>     N_core 60
| 26>     lmax f
| 27>     s 3
| 28>       1      14.5464077000   1345.8806470000  2
| 29>       2       7.2732038000     36.7668062000  2
| 30>       3       2.0178811000    -12.0179609000  2
| 31>     p 3
| 32>       1       9.9355653000    378.4253015000  2
| 33>       2       4.9677824000     22.2930909000  2
| 34>       3       2.0178811000    -12.0179609000  2
| 35>     d 3
| 36>       1       6.3473769000    104.8839557000  2
| 37>       2       3.1736885000      8.7558481000  2
| 38>       3       2.0178811000    -12.0179609000  2
| 39>     f 1
| 40>       1       2.0178811000     12.0179609000  2
| 41>   end
| 42>   NewGTO 73
| 43>     s 2
| 44>      1      14.4000000000      1.4764043846
| 45>      2      12.0000000000     -2.4536684721
| 46>     s 1
| 47>      1       5.0701477302      1.0000000000
| 48>     s 1
| 49>      1       0.8603335649      1.0000000000
| 50>     s 1
| 51>      1       0.3715893889      1.0000000000
| 52>     s 1
| 53>      1       0.1074533625      1.0000000000
| 54>     s 1
| 55>      1       0.0391427766      1.0000000000
| 56>     p 4
| 57>      1       7.4188720000      0.2965388357
| 58>      2       5.6984100000     -0.5162436146
| 59>      3       1.1777211960      0.5595074018
| 60>      4       0.5447853355      0.5748187935
| 61>     p 1
| 62>      1       0.2230927012      1.0000000000
| 63>     p 1
| 64>      1       0.0431000000      1.0000000000
| 65>     d 4
| 66>      1       3.9738796278     -0.0588169688
| 67>      2       1.4528884813      0.2067345355
| 68>      3       0.6104290854      0.4785521518
| 69>      4       0.2421627651      0.4845470672
| 70>     d 1
| 71>      1       0.0879093183      1.0000000000
| 72>   end
| 73>   NewAuxGTO 73
| 74>     S 1
| 75>      1 1310.72 1.0
| 76>     S 1
| 77>      1  655.36 1.0
| 78>     S 1
| 79>      1  327.68 1.0
| 80>     S 1
| 81>      1  163.84 1.0
| 82>     S 1
| 83>      1   81.82 1.0
| 84>     S 1
| 85>      1   40.96 1.0
| 86>     S 1
| 87>      1   20.48 1.0
| 88>     S 1
| 89>      1   10.24 1.0
| 90>     S 1
| 91>      1    5.12 1.0
| 92>     S 1
| 93>      1    2.56 1.0
| 94>     S 1
| 95>      1    1.28 1.0
| 96>     S 1
| 97>      1    0.64 1.0
| 98>     S 1
| 99>      1    0.32 1.0
|100>     S 1
|101>      1    0.16 1.0
|102>     S 1
|103>      1    0.08 1.0
|104>     S 1
|105>      1    0.04 1.0
|106>     S 1
|107>      1    0.02 1.0
|108>     S 1
|109>      1    0.01 1.0
|110>   end
|111> end
|112>
|113> * xyz 0 4
|114> 73  0.0 0.0 0.0
|115> *
|116>
|117>
|118>                          ****END OF INPUT****

CARTESIAN COORDINATES (ANGSTROEM)
---------------------------------
  Ta     0.000000    0.000000    0.000000

 Total Charge           Charge          ....    0
 Multiplicity           Mult            ....    4
 Number of Electrons    NEL             ....   13
 Basis Dimension        Dim             ....   25

ORBITAL ENERGIES
----------------

  NO   OCC          E(Eh)            E(eV)
   0   2.0000      -3.319972       -90.3410
   1   2.0000      -1.901723       -51.7485
   2   2.0000      -1.886053       -51.3221
   3   2.0000      -1.886013       -51.3210
   4   2.0000      -0.406941       -11.0734
   5   0.6000      -0.415610       -11.3093
   6   0.6000      -0.386043       -10.5048
   7   0.6000      -0.189112        -5.1460
   8   0.6000      -0.175797        -4.7837
   9   0.6000      -0.175756        -4.7826
  10   0.0000      -0.185232        -5.0404
  11   0.0000      -0.185071        -5.0360
  12   0.0000      -0.156690        -4.2638
  13   0.0000       0.029596         0.8054
  14   0.0000       0.144468         3.9312

CleanUpVectors: The p-vectors have cracked symmetry
CleanUpVectors: The p-vectors have cracked symmetry
CleanUpVectors: The p-vectors have cracked symmetry
CleanUpVectors: The d-vectors have cracked symmetry at i=4
CleanUpVectors: The d-vectors have cracked symmetry at i=6
CleanUpVectors: The p-vectors have cracked symmetry
CleanUpVectors: The p-vectors have cracked symmetry
CleanUpVectors: The p-vectors have cracked symmetry
CleanUpVectors: The d-vectors have cracked symmetry at i=10
CleanUpVectors: The d-vectors have cracked symmetry at i=11
CleanUpVectors: The d-vectors have cracked symmetry at i=12
CleanUpVectors: The d-vectors have cracked symmetry at i=14
CleanUpVectors: The d-vectors have cracked symmetry at i=15
CleanUpVectors: The d-vectors have cracked symmetry at i=16
CleanUpVectors: The d-vectors have cracked symmetry at i=17
CleanUpVectors: The d-vectors have cracked symmetry at i=18
CleanUpVectors: The p-vectors have cracked symmetry
CleanUpVectors: The p-vectors have cracked symmetry
CleanUpVectors: The p-vectors have cracked symmetry
--------------------------
ATOM BASIS FOR ELEMENT Ta
--------------------------
 NewGTO Ta
 S 7
    1         14.400000000000        -0.593014588924
    2         12.000000000000         0.985543808671
    3          5.070147730200        -0.887886754540
    4          0.860333564900         0.982056602671
    5          0.371589388900         0.292640456601
    6          0.107453362500         0.001085958566
    7          0.039142776600         0.000685158522
 P 16
    1          7.418872000000         0.000000645080
    2          5.698410000000        -0.000001123018
    3          1.177721196000         0.000001217132
    4          0.544785335500         0.000001250440
    5          7.418872000000        -0.270840637656
    6          5.698410000000         0.471505694807
    7          1.177721196000        -0.511020221412
    8          0.544785335500        -0.525004720547
    9          7.418872000000        -0.046365227356
   10          5.698410000000         0.080717092267
   11          1.177721196000        -0.087481586789
   12          0.544785335500        -0.089875594157
   13          0.223092701200        -0.102525505261
   14          0.223092701200        -0.017551348285
   15          0.043100000000         0.002017409444
   16          0.043100000000         0.000345360461
 D 18
    1         14.400000000000        -0.000014419503
    2         12.000000000000         0.000028756901
    3          5.070147730200        -0.000063537215
    4          0.860333564900         0.000637487364
    5          0.371589388900         0.000400833588
    6          0.107453362500        -0.007490758263
    7          0.039142776600        -0.004850291849
    8          3.973879627800        -0.000364553624
    9          1.452888481300         0.001281361919
   10          0.610429085400         0.002966115469
   11          0.242162765100         0.003003272572
   12          3.973879627800        -0.009202213962
   13          1.452888481300         0.032344669708
   14          0.610429085400         0.074871918476
   15          0.242162765100         0.075809853485
   16          3.973879627800         0.053754358111
   17          1.452888481300        -0.188940070901
   18          0.610429085400        -0.437361262704
 S 7
    1         14.400000000000        -3.288703065849
    2         12.000000000000         5.465566961831
    3          5.070147730200        -1.570681247290
    4          0.860333564900         0.525428794290
    5          0.371589388900        -0.385896065632
    6          0.107453362500         0.154173803142
    7          0.039142776600        -0.054355471081
 D 18
    1         14.400000000000        -0.000667803427
    2         12.000000000000         0.001331804402
    3          5.070147730200        -0.002926644074
    4          0.860333564900         0.024250944395
    5          0.371589388900         0.055568744447
    6          0.107453362500        -0.374218328297
    7          0.039142776600        -0.866855167206
    8          3.973879627800         0.025916800921
    9          1.452888481300        -0.091094422398
   10          0.610429085400        -0.210866712474
   11          0.242162765100        -0.213508280582
   12          3.973879627800        -0.000034349864
   13          1.452888481300         0.000120735618
   14          0.610429085400         0.000279480590
   15          0.242162765100         0.000282981697
   16          3.973879627800         0.000201902483
   17          1.452888481300        -0.000709662823
   18          0.610429085400        -0.001642737968
 D 18
    1          3.973879627800        -0.000000133972
    2          1.452888481300         0.000000470897
    3          0.610429085400         0.000001090040
    4          0.242162765100         0.000001103695
    5          3.973879627800         0.032475452596
    6          1.452888481300        -0.114147290223
    7          0.610429085400        -0.264229830910
    8          0.242162765100        -0.267539889127
    9          3.973879627800         0.005559553042
   10          1.452888481300        -0.019541156900
   11          0.610429085400        -0.045234158195
   12          0.242162765100        -0.045800815247
   13          3.973879627800         0.010904837406
   14          1.452888481300        -0.038329185298
   15          0.610429085400        -0.088724963427
   16          0.242162765100        -0.089836438211
   17          3.973879627800        -0.030916455248
   18          1.452888481300         0.108667602996
 D 18
    1          3.973879627800        -0.000000133300
    2          1.452888481300         0.000000468533
    3          0.610429085400         0.000001084567
    4          0.242162765100         0.000001098153
    5          3.973879627800         0.032312397762
    6          1.452888481300        -0.113574172191
    7          0.610429085400        -0.262903168836
    8          0.242162765100        -0.266196607701
    9          3.973879627800         0.005531639282
   10          1.452888481300        -0.019443043407
   11          0.610429085400        -0.045007043634
   12          0.242162765100        -0.045570855578
   13          3.973879627800         0.010850085709
   14          1.452888481300        -0.038136739702
   15          0.610429085400        -0.088279487522
   16          0.242162765100        -0.089385381744
   17          3.973879627800        -0.030761227955
   18          1.452888481300         0.108121997826
 end
  // -----------------------------------------------
  // The basis set
  // -----------------------------------------------
  BAS[ATNO] = new BFNGauss[NSH];
  // Basis function   1 L = s
  InitBFNGauss(BAS[ATNO][  0]);
  BAS[ATNO][  0].l  = 0;
  BAS[ATNO][  0].ng = 7;
  BAS[ATNO][  0].a[  0] =        14.400000000000;     BAS[ATNO][  0].d[  0] =        -0.593014588924;
  BAS[ATNO][  0].a[  1] =        12.000000000000;     BAS[ATNO][  0].d[  1] =         0.985543808671;
  BAS[ATNO][  0].a[  2] =         5.070147730200;     BAS[ATNO][  0].d[  2] =        -0.887886754540;
  BAS[ATNO][  0].a[  3] =         0.860333564900;     BAS[ATNO][  0].d[  3] =         0.982056602671;
  BAS[ATNO][  0].a[  4] =         0.371589388900;     BAS[ATNO][  0].d[  4] =         0.292640456601;
  BAS[ATNO][  0].a[  5] =         0.107453362500;     BAS[ATNO][  0].d[  5] =         0.001085958566;
  BAS[ATNO][  0].a[  6] =         0.039142776600;     BAS[ATNO][  0].d[  6] =         0.000685158522;

FINAL SINGLE POINT ENERGY       -55.983432873987

DIPOLE MOMENT
-------------
                                X             Y             Z
Electronic contribution:      0.00000       0.00000       0.00000
Nuclear contribution   :      0.00000       0.00000       0.00000
                        -----------------------------------------
Total Dipole Moment    :      0.00000       0.00000       0.00000
                        -----------------------------------------
Magnitude (a.u.)       :      0.00000
Magnitude (Debye)      :      0.00000

Rotational constants in cm-1:     0.000000     0.000000     0.000000
Rotational constants in MHz :     0.000000     0.000000     0.000000

                             ****ORCA TERMINATED NORMALLY****
TOTAL RUN TIME: 0 days 0 hours 0 minutes 1 seconds 369 msec
