                         Program Version 4.2.0 -  RELEASE  -
|  1> # input to generate an atomic fitting density for W
|  2> # this file is use internally by ORCA
|  3> #
|  4> # atomic ground state (S=5): 1s2 2s2 2p6 3s2 3p6 4s2 3d10 4p6 5s2 4d10 5p6 6s2 4f14 5d4
|  5> #
|  6> ! RHF AllowRHF def2-SVP def2/J  NoMulliken NoLoewdin NoMayer NoPrintMOs
|  7>
|  8> %output print[p_atomdensfit] 2 end
|  9>
| 10> %scf
| 11>   guess hcore
| 12>   maxiter 1000
| 13>   maxdisk 500000
| 14>   SCFMode Conventional
| 15>   lshift 0.500000
| 16>   hftyp rohf
| 17>   rohf_case sahf
| 18>   rohf_numop   2
| 19>   rohf_norb[1] 5
| 20>   rohf_nel[1]  4
| 21> end
| 22>
| 23> %basis
| 24>   NewECP 74
| 25>     N_core 60
| 26>     lmax f
| 27>     s 3
| 28>       1      14.3228564000   1192.3958823000  2
| 29>       2       7.1614281000     32.5229332000  2
| 30>       3       2.2588885000    -14.1525795000  2
| 31>     p 3
| 32>       1      10.0216411000    359.0319671000  2
| 33>       2       5.0108204000     24.0303802000  2
| 34>       3       2.2588885000    -14.1525795000  2
| 35>     d 3
| 36>       1       6.5979974000    108.3013490000  2
| 37>       2       3.2989987000     10.9825283000  2
| 38>       3       2.2588885000    -14.1525795000  2
| 39>     f 1
| 40>       1       2.2588885000     14.1525795000  2
| 41>   end
| 42>   NewGTO 74
| 43>     s 2
| 44>      1      15.0000000000     -1.1137185609
| 45>      2      12.0000000000      2.0918746722
| 46>     s 1
| 47>      1       5.2610967725      1.0000000000
| 48>     s 1
| 49>      1       0.9278537031      1.0000000000
| 50>     s 1
| 51>      1       0.4033445824      1.0000000000
| 52>     s 1
| 53>      1       0.1158597665      1.0000000000
| 54>     s 1
| 55>      1       0.0418004741      1.0000000000
| 56>     p 4
| 57>      1       7.2496570000      0.5026370135
| 58>      2       6.0848760000     -0.7313189333
| 59>      3       1.2523777812      0.5709572661
| 60>      4       0.5856920892      0.5687139587
| 61>     p 1
| 62>      1       0.2410696430      1.0000000000
| 63>     p 1
| 64>      1       0.0403000000      1.0000000000
| 65>     d 4
| 66>      1       4.0131231332     -0.0701863048
| 67>      2       1.6237452450      0.2042259289
| 68>      3       0.6918745239      0.4883173718
| 69>      4       0.2786583532      0.4776563921
| 70>     d 1
| 71>      1       0.1022529645      1.0000000000
| 72>   end
| 73>   NewAuxGTO 74
| 74>     S 1
| 75>      1 1310.72 1.0
| 76>     S 1
| 77>      1  655.36 1.0
| 78>     S 1
| 79>      1  327.68 1.0
| 80>     S 1
| 81>      1  163.84 1.0
| 82>     S 1
| 83>      1   81.82 1.0
| 84>     S 1
| 85>      1   40.96 1.0
| 86>     S 1
| 87>      1   20.48 1.0
| 88>     S 1
| 89>      1   10.24 1.0
| 90>     S 1
| 91>      1    5.12 1.0
| 92>     S 1
| 93>      1    2.56 1.0
| 94>     S 1
| 95>      1    1.28 1.0
| 96>     S 1
| 97>      1    0.64 1.0
| 98>     S 1
| 99>      1    0.32 1.0
|100>     S 1
|101>      1    0.16 1.0
|102>     S 1
|103>      1    0.08 1.0
|104>     S 1
|105>      1    0.04 1.0
|106>     S 1
|107>      1    0.02 1.0
|108>     S 1
|109>      1    0.01 1.0
|110>   end
|111> end
|112>
|113> * xyz 0 5
|114> 74  0.0 0.0 0.0
|115> *
|116>
|117>
|118>                          ****END OF INPUT****

CARTESIAN COORDINATES (ANGSTROEM)
---------------------------------
  W      0.000000    0.000000    0.000000

 Total Charge           Charge          ....    0
 Multiplicity           Mult            ....    5
 Number of Electrons    NEL             ....   14
 Basis Dimension        Dim             ....   25

ORBITAL ENERGIES
----------------

  NO   OCC          E(Eh)            E(eV)
   0   2.0000      -3.773187      -102.6736
   1   2.0000      -2.241126       -60.9841
   2   2.0000      -2.226983       -60.5993
   3   2.0000      -2.226943       -60.5982
   4   2.0000      -0.595987       -16.2176
   5   0.8000      -0.637595       -17.3499
   6   0.8000      -0.519687       -14.1414
   7   0.8000      -0.225760        -6.1432
   8   0.8000      -0.212517        -5.7829
   9   0.8000      -0.212480        -5.7819
  10   0.0000      -0.272809        -7.4235
  11   0.0000      -0.272731        -7.4214
  12   0.0000      -0.246945        -6.7197
  13   0.0000       0.033334         0.9071
  14   0.0000       0.157927         4.2974

CleanUpVectors: The p-vectors have cracked symmetry
CleanUpVectors: The p-vectors have cracked symmetry
CleanUpVectors: The p-vectors have cracked symmetry
CleanUpVectors: The d-vectors have cracked symmetry at i=4
CleanUpVectors: The d-vectors have cracked symmetry at i=5
CleanUpVectors: The p-vectors have cracked symmetry
CleanUpVectors: The p-vectors have cracked symmetry
CleanUpVectors: The p-vectors have cracked symmetry
CleanUpVectors: The d-vectors have cracked symmetry at i=10
CleanUpVectors: The d-vectors have cracked symmetry at i=11
CleanUpVectors: The d-vectors have cracked symmetry at i=12
CleanUpVectors: The d-vectors have cracked symmetry at i=14
CleanUpVectors: The d-vectors have cracked symmetry at i=15
CleanUpVectors: The d-vectors have cracked symmetry at i=16
CleanUpVectors: The d-vectors have cracked symmetry at i=17
CleanUpVectors: The d-vectors have cracked symmetry at i=18
CleanUpVectors: The p-vectors have cracked symmetry
CleanUpVectors: The p-vectors have cracked symmetry
CleanUpVectors: The p-vectors have cracked symmetry
--------------------------
ATOM BASIS FOR ELEMENT W
--------------------------
 NewGTO W
 S 7
    1         15.000000000000        -0.482287239679
    2         12.000000000000         0.905870205300
    3          5.261096772500        -0.943428662071
    4          0.927853703100         1.011620909602
    5          0.403344582400         0.283216794723
    6          0.115859766500        -0.001269320410
    7          0.041800474100         0.001101162131
 P 17
    1          7.249657000000        -0.000004585886
    2          6.084876000000         0.000006672300
    3          1.252377781200        -0.000005209216
    4          0.585692089200        -0.000005188749
    5          7.249657000000        -0.472024435788
    6          6.084876000000         0.686778724210
    7          1.252377781200        -0.536183715388
    8          0.585692089200        -0.534077034262
    9          7.249657000000        -0.015730560666
   10          6.084876000000         0.022887404901
   11          1.252377781200        -0.017868715735
   12          0.585692089200        -0.017798509040
   13          0.241069643000        -0.000000835095
   14          0.241069643000        -0.085956212438
   15          0.241069643000        -0.002864553849
   16          0.040300000000         0.002616262580
   17          0.040300000000         0.000087188870
 D 18
    1         15.000000000000        -0.000001034922
    2         12.000000000000         0.000002429841
    3          5.261096772500        -0.000005997007
    4          0.927853703100         0.000061884270
    5          0.403344582400        -0.000021950683
    6          0.115859766500        -0.000465194800
    7          0.041800474100         0.000078298574
    8          4.013123133200        -0.000176627993
    9          1.623745245000         0.000513946647
   10          0.691874523900         0.001228879590
   11          0.278658353200         0.001202050603
   12          4.013123133200        -0.002242978352
   13          1.623745245000         0.006526548716
   14          0.691874523900         0.015605399046
   15          0.278658353200         0.015264700861
   16          4.013123133200         0.067304787367
   17          1.623745245000        -0.195841379008
   18          0.691874523900        -0.468269372072
 S 7
    1         15.000000000000        -2.871447627259
    2         12.000000000000         5.393381034395
    3          5.261096772500        -3.678415000567
    4          0.927853703100         1.600196103575
    5          0.403344582400        -1.175578595701
    6          0.115859766500         0.459766578843
    7          0.041800474100        -0.160796615809
 S 7
    1         15.000000000000        -2.556990313146
    2         12.000000000000         4.802742327297
    3          5.261096772500        -1.653633683163
    4          0.927853703100         0.553114521658
    5          0.403344582400        -0.399539169920
    6          0.115859766500         0.155773863011
    7          0.041800474100        -0.054544275126
 P 18
    1          7.249657000000        -0.000001632680
    2          6.084876000000         0.000002375492
    3          1.252377781200        -0.000001854600
    4          0.585692089200        -0.000001847314
    5          7.249657000000        -0.168051509706
    6          6.084876000000         0.244508954806
    7          1.252377781200        -0.190893682655
    8          0.585692089200        -0.190143655925
    9          7.249657000000        -0.005600439867
   10          6.084876000000         0.008148440325
   11          1.252377781200        -0.006361672041
   12          0.585692089200        -0.006336676850
   13          0.241069643000         0.000002541553
   14          0.241069643000         0.261601587474
   15          0.241069643000         0.008718064850
   16          0.040300000000         0.000008819420
   17          0.040300000000         0.907781392364
   18          0.040300000000         0.030252480976
 D 18
    1          4.013123133200         0.000000730172
    2          1.623745245000        -0.000002124633
    3          0.691874523900        -0.000005080134
    4          0.278658353200        -0.000004969224
    5          4.013123133200         0.043391614233
    6          1.623745245000        -0.126259570845
    7          0.691874523900        -0.301894779629
    8          0.278658353200        -0.295303791261
    9          4.013123133200         0.001446480109
   10          1.623745245000        -0.004208922876
   11          0.691874523900        -0.010063806140
   12          0.278658353200        -0.009844092406
   13          4.013123133200        -0.002897286065
   14          1.623745245000         0.008430432968
   15          0.691874523900         0.020157709123
   16          0.278658353200         0.019717624580
   17          4.013123133200         0.043414592387
   18          1.623745245000        -0.126326431962
 D 18
    1          4.013123133200         0.000000579120
    2          1.623745245000        -0.000001685104
    3          0.691874523900        -0.000004029193
    4          0.278658353200        -0.000003941227
    5          4.013123133200         0.034415076232
    6          1.623745245000        -0.100139919485
    7          0.691874523900        -0.239441008096
    8          0.278658353200        -0.234213514925
    9          4.013123133200         0.001147242943
   10          1.623745245000        -0.003338211869
   11          0.691874523900        -0.007981879946
   12          0.278658353200        -0.007807618974
   13          4.013123133200        -0.002297916827
   14          1.623745245000         0.006686406984
   15          0.691874523900         0.015987630478
   16          0.278658353200         0.015638587389
   17          4.013123133200         0.034433300738
   18          1.623745245000        -0.100192948587
 P 18
    1          7.249657000000        -0.356428129609
    2          6.084876000000         0.518590220264
    3          1.252377781200        -0.404875138474
    4          0.585692089200        -0.403284372495
    5          7.249657000000        -0.011842138501
    6          6.084876000000         0.017229889291
    7          1.252377781200        -0.013451765074
    8          0.585692089200        -0.013398912705
    9          7.249657000000         0.355449077874
   10          6.084876000000        -0.517165734897
   11          1.252377781200         0.403763010463
   12          0.585692089200         0.402176614067
   13          0.241069643000         1.067828732318
   14          0.241069643000         0.035478052075
   15          0.241069643000        -1.064895575572
   16          0.040300000000        -0.455754209864
   17          0.040300000000        -0.015142195655
   18          0.040300000000         0.454502325086
 end
  // -----------------------------------------------
  // The basis set
  // -----------------------------------------------
  BAS[ATNO] = new BFNGauss[NSH];
  // Basis function   1 L = s
  InitBFNGauss(BAS[ATNO][  0]);
  BAS[ATNO][  0].l  = 0;
  BAS[ATNO][  0].ng = 7;
  BAS[ATNO][  0].a[  0] =        15.000000000000;     BAS[ATNO][  0].d[  0] =        -0.482287239679;
  BAS[ATNO][  0].a[  1] =        12.000000000000;     BAS[ATNO][  0].d[  1] =         0.905870205300;
  BAS[ATNO][  0].a[  2] =         5.261096772500;     BAS[ATNO][  0].d[  2] =        -0.943428662071;
  BAS[ATNO][  0].a[  3] =         0.927853703100;     BAS[ATNO][  0].d[  3] =         1.011620909602;
  BAS[ATNO][  0].a[  4] =         0.403344582400;     BAS[ATNO][  0].d[  4] =         0.283216794723;
  BAS[ATNO][  0].a[  5] =         0.115859766500;     BAS[ATNO][  0].d[  5] =        -0.001269320410;
  BAS[ATNO][  0].a[  6] =         0.041800474100;     BAS[ATNO][  0].d[  6] =         0.001101162131;

FINAL SINGLE POINT ENERGY       -65.815834338164

DIPOLE MOMENT
-------------
                                X             Y             Z
Electronic contribution:     -0.00000      -0.00000      -0.00000
Nuclear contribution   :      0.00000       0.00000       0.00000
                        -----------------------------------------
Total Dipole Moment    :     -0.00000      -0.00000      -0.00000
                        -----------------------------------------
Magnitude (a.u.)       :      0.00000
Magnitude (Debye)      :      0.00000

Rotational constants in cm-1:     0.000000     0.000000     0.000000
Rotational constants in MHz :     0.000000     0.000000     0.000000

                             ****ORCA TERMINATED NORMALLY****
TOTAL RUN TIME: 0 days 0 hours 0 minutes 0 seconds 988 msec
