                         Program Version 4.2.0 -  RELEASE  -
|  1> #
|  2> # 74_W CCSD(T)/Def2-SVP
|  3> #
|  4> ! CCSD(T) Def2-SVP tightscf
|  5>
|  6> *xyz 0 5
|  7>  W 0.0 0.0 0.0
|  8> *
|  9>
| 10> %maxcore 5000
| 11>
| 12> %pal
| 13> nprocs 24
| 14> end
| 15>
| 16> %method
| 17> NewNCore W 60 end
| 18> end
| 19>
| 20>
| 21>                          ****END OF INPUT****

CARTESIAN COORDINATES (ANGSTROEM)
---------------------------------
  W      0.000000    0.000000    0.000000

 Total Charge           Charge          ....    0
 Multiplicity           Mult            ....    5
 Number of Electrons    NEL             ....   14
 Basis Dimension        Dim             ....   32

ORBITAL ENERGIES
----------------
                 SPIN UP ORBITALS
  NO   OCC          E(Eh)            E(eV)
   0   1.0000      -3.475211       -94.5653
   1   1.0000      -2.004730       -54.5515
   2   1.0000      -2.004727       -54.5514
   3   1.0000      -1.974763       -53.7360
   4   1.0000      -0.379143       -10.3170
   5   1.0000      -0.379140       -10.3169
   6   1.0000      -0.360040        -9.7972
   7   1.0000      -0.360039        -9.7972
   8   1.0000      -0.304442        -8.2843
   9   0.0000       0.036544         0.9944
  10   0.0000       0.036545         0.9944
  11   0.0000       0.047519         1.2931
  12   0.0000       0.058403         1.5892
  13   0.0000       0.186373         5.0715

                 SPIN DOWN ORBITALS
  NO   OCC          E(Eh)            E(eV)
   0   1.0000      -3.320546       -90.3567
   1   1.0000      -1.795774       -48.8655
   2   1.0000      -1.749375       -47.6029
   3   1.0000      -1.749370       -47.6028
   4   1.0000      -0.228110        -6.2072
   5   0.0000       0.040342         1.0978
   6   0.0000       0.060733         1.6526
   7   0.0000       0.060733         1.6526
   8   0.0000       0.102491         2.7889
   9   0.0000       0.138823         3.7776

E(0)                                       ...    -66.315258289
E(0)                                       ...    -66.315258289
E(CORR)                                    ...     -0.194945902
E(TOT)                                     ...    -66.510204191
E(CCSD(T))                                 ...    -66.515648877

MULLIKEN ATOMIC CHARGES AND SPIN DENSITIES
------------------------------------------
   0 W :    0.000000    4.000000
Sum of atomic charges       :    0.0000000

LOEWDIN ATOMIC CHARGES AND SPIN DENSITIES
-----------------------------------------
   0 W :    0.000000    4.000000

FINAL SINGLE POINT ENERGY       -66.515648876751

DIPOLE MOMENT
-------------
                                X             Y             Z
Electronic contribution:      0.00000       0.00000       0.00000
Nuclear contribution   :      0.00000       0.00000       0.00000
                        -----------------------------------------
Total Dipole Moment    :      0.00000       0.00000       0.00000
                        -----------------------------------------
Magnitude (a.u.)       :      0.00000
Magnitude (Debye)      :      0.00000

Rotational constants in cm-1:     0.000000     0.000000     0.000000
Rotational constants in MHz :     0.000000     0.000000     0.000000

                             ****ORCA TERMINATED NORMALLY****
TOTAL RUN TIME: 0 days 0 hours 0 minutes 35 seconds 368 msec
