                         Program Version 4.2.0 -  RELEASE  -
|  1> #
|  2> # 75_Re CCSD(T)/Def2-SVP
|  3> #
|  4> ! CCSD(T) Def2-SVP tightscf
|  5>
|  6> *xyz 0 6
|  7>  Re 0.0 0.0 0.0
|  8> *
|  9>
| 10> %maxcore 5000
| 11>
| 12> %pal
| 13> nprocs 24
| 14> end
| 15>
| 16> %method
| 17> NewNCore Re 60 end
| 18> end
| 19>
| 20>
| 21>                          ****END OF INPUT****

CARTESIAN COORDINATES (ANGSTROEM)
---------------------------------
  Re     0.000000    0.000000    0.000000

 Total Charge           Charge          ....    0
 Multiplicity           Mult            ....    6
 Number of Electrons    NEL             ....   15
 Basis Dimension        Dim             ....   32

ORBITAL ENERGIES
----------------
                 SPIN UP ORBITALS
  NO   OCC          E(Eh)            E(eV)
   0   1.0000      -3.664055       -99.7040
   1   1.0000      -2.136349       -58.1330
   2   1.0000      -2.090645       -56.8893
   3   1.0000      -2.090328       -56.8807
   4   1.0000      -0.366737        -9.9794
   5   1.0000      -0.357931        -9.7398
   6   1.0000      -0.357814        -9.7366
   7   1.0000      -0.339678        -9.2431
   8   1.0000      -0.309734        -8.4283
   9   1.0000      -0.286401        -7.7934
  10   0.0000       0.040639         1.1058
  11   0.0000       0.050768         1.3815
  12   0.0000       0.050825         1.3830
  13   0.0000       0.207056         5.6343
  14   0.0000       0.445146        12.1130

                 SPIN DOWN ORBITALS
  NO   OCC          E(Eh)            E(eV)
   0   1.0000      -3.492676       -95.0405
   1   1.0000      -1.869865       -50.8816
   2   1.0000      -1.869673       -50.8764
   3   1.0000      -1.843701       -50.1697
   4   1.0000      -0.206868        -5.6292
   5   0.0000       0.023597         0.6421
   6   0.0000       0.100818         2.7434
   7   0.0000       0.103080         2.8050
   8   0.0000       0.103106         2.8057
   9   0.0000       0.183893         5.0040

E(0)                                       ...    -77.460421774
E(0)                                       ...    -77.460421774
E(CORR)                                    ...     -0.210562617
E(TOT)                                     ...    -77.670984391
E(CCSD(T))                                 ...    -77.675393263

MULLIKEN ATOMIC CHARGES AND SPIN DENSITIES
------------------------------------------
   0 Re:   -0.000000    5.000000
Sum of atomic charges       :   -0.0000000

LOEWDIN ATOMIC CHARGES AND SPIN DENSITIES
-----------------------------------------
   0 Re:   -0.000000    5.000000

FINAL SINGLE POINT ENERGY       -77.675393262760

DIPOLE MOMENT
-------------
                                X             Y             Z
Electronic contribution:     -0.00000      -0.00000      -0.00000
Nuclear contribution   :      0.00000       0.00000       0.00000
                        -----------------------------------------
Total Dipole Moment    :     -0.00000      -0.00000      -0.00000
                        -----------------------------------------
Magnitude (a.u.)       :      0.00000
Magnitude (Debye)      :      0.00000

Rotational constants in cm-1:     0.000000     0.000000     0.000000
Rotational constants in MHz :     0.000000     0.000000     0.000000

                             ****ORCA TERMINATED NORMALLY****
TOTAL RUN TIME: 0 days 0 hours 0 minutes 17 seconds 791 msec
