                         Program Version 4.2.0 -  RELEASE  -
|  1> # input to generate an atomic fitting density for Re
|  2> # this file is use internally by ORCA
|  3> #
|  4> # atomic ground state (S=6): 1s2 2s2 2p6 3s2 3p6 4s2 3d10 4p6 5s2 4d10 5p6 6s2 4f14 5d5
|  5> #
|  6> ! RHF AllowRHF def2-SVP def2/J  NoMulliken NoLoewdin NoMayer NoPrintMOs
|  7>
|  8> %output print[p_atomdensfit] 2 end
|  9>
| 10> %scf
| 11>   guess hcore
| 12>   maxiter 1000
| 13>   maxdisk 500000
| 14>   SCFMode Conventional
| 15>   lshift 0.500000
| 16>   hftyp rohf
| 17>   rohf_case sahf
| 18>   rohf_numop   2
| 19>   rohf_norb[1] 5
| 20>   rohf_nel[1]  5
| 21> end
| 22>
| 23> %basis
| 24>   NewECP 75
| 25>     N_core 60
| 26>     lmax f
| 27>     s 3
| 28>       1      14.0993051000   1038.9515723000  2
| 29>       2       7.0496525000     29.5617383000  2
| 30>       3       2.5086506000    -16.4498523000  2
| 31>     p 3
| 32>       1      10.1077169000    339.5435096000  2
| 33>       2       5.0538583000     24.9136965000  2
| 34>       3       2.5086506000    -16.4498523000  2
| 35>     d 3
| 36>       1       6.8486179000    111.6996527000  2
| 37>       2       3.4243090000     12.6243293000  2
| 38>       3       2.5086506000    -16.4498523000  2
| 39>     f 1
| 40>       1       2.5086506000     16.4498523000  2
| 41>   end
| 42>   NewGTO 75
| 43>     s 2
| 44>      1      14.7818620000     -1.3989965692
| 45>      2      12.3240750000      2.3782440179
| 46>     s 1
| 47>      1       5.5098597284      1.0000000000
| 48>     s 1
| 49>      1       0.9887410469      1.0000000000
| 50>     s 1
| 51>      1       0.4283331203      1.0000000000
| 52>     s 1
| 53>      1       0.1229680453      1.0000000000
| 54>     s 1
| 55>      1       0.0439498516      1.0000000000
| 56>     p 4
| 57>      1       7.4040050000      0.5957878713
| 58>      2       6.3502060000     -0.8317066137
| 59>      3       1.3311713455      0.5820310906
| 60>      4       0.6265960055      0.5626939292
| 61>     p 1
| 62>      1       0.2592271870      1.0000000000
| 63>     p 1
| 64>      1       0.0483000000      1.0000000000
| 65>     d 4
| 66>      1       4.0616274916     -0.0845467499
| 67>      2       1.8487943286      0.1992437577
| 68>      3       0.7870204843      0.4980214909
| 69>      4       0.3206984317      0.4770739482
| 70>     d 1
| 71>      1       0.1189274298      1.0000000000
| 72>   end
| 73>   NewAuxGTO 75
| 74>     S 1
| 75>      1 1310.72 1.0
| 76>     S 1
| 77>      1  655.36 1.0
| 78>     S 1
| 79>      1  327.68 1.0
| 80>     S 1
| 81>      1  163.84 1.0
| 82>     S 1
| 83>      1   81.82 1.0
| 84>     S 1
| 85>      1   40.96 1.0
| 86>     S 1
| 87>      1   20.48 1.0
| 88>     S 1
| 89>      1   10.24 1.0
| 90>     S 1
| 91>      1    5.12 1.0
| 92>     S 1
| 93>      1    2.56 1.0
| 94>     S 1
| 95>      1    1.28 1.0
| 96>     S 1
| 97>      1    0.64 1.0
| 98>     S 1
| 99>      1    0.32 1.0
|100>     S 1
|101>      1    0.16 1.0
|102>     S 1
|103>      1    0.08 1.0
|104>     S 1
|105>      1    0.04 1.0
|106>     S 1
|107>      1    0.02 1.0
|108>     S 1
|109>      1    0.01 1.0
|110>   end
|111> end
|112>
|113> * xyz 0 6
|114> 75  0.0 0.0 0.0
|115> *
|116>
|117>
|118>                          ****END OF INPUT****

CARTESIAN COORDINATES (ANGSTROEM)
---------------------------------
  Re     0.000000    0.000000    0.000000

 Total Charge           Charge          ....    0
 Multiplicity           Mult            ....    6
 Number of Electrons    NEL             ....   15
 Basis Dimension        Dim             ....   25

ORBITAL ENERGIES
----------------

  NO   OCC          E(Eh)            E(eV)
   0   2.0000      -4.197072      -114.2081
   1   2.0000      -2.556635       -69.5696
   2   2.0000      -2.546392       -69.2908
   3   2.0000      -2.543222       -69.2046
   4   2.0000      -0.760541       -20.6954
   5   1.0000      -0.854431       -23.2502
   6   1.0000      -0.634327       -17.2609
   7   1.0000      -0.272759        -7.4222
   8   1.0000      -0.260065        -7.0767
   9   1.0000      -0.256216        -6.9720
  10   0.0000      -0.335517        -9.1299
  11   0.0000      -0.330201        -8.9852
  12   0.0000      -0.312649        -8.5076
  13   0.0000       0.062841         1.7100
  14   0.0000       0.210567         5.7298

CleanUpVectors: The p-vectors have cracked symmetry
CleanUpVectors: The p-vectors have cracked symmetry
CleanUpVectors: The p-vectors have cracked symmetry
CleanUpVectors: The d-vectors have cracked symmetry at i=4
CleanUpVectors: The d-vectors have cracked symmetry at i=5
CleanUpVectors: The p-vectors have cracked symmetry
CleanUpVectors: The p-vectors have cracked symmetry
CleanUpVectors: The p-vectors have cracked symmetry
CleanUpVectors: The d-vectors have cracked symmetry at i=10
CleanUpVectors: The d-vectors have cracked symmetry at i=11
CleanUpVectors: The d-vectors have cracked symmetry at i=12
CleanUpVectors: The d-vectors have cracked symmetry at i=14
CleanUpVectors: The d-vectors have cracked symmetry at i=15
CleanUpVectors: The d-vectors have cracked symmetry at i=16
CleanUpVectors: The d-vectors have cracked symmetry at i=17
CleanUpVectors: The d-vectors have cracked symmetry at i=18
CleanUpVectors: The p-vectors have cracked symmetry
CleanUpVectors: The p-vectors have cracked symmetry
CleanUpVectors: The p-vectors have cracked symmetry
--------------------------
ATOM BASIS FOR ELEMENT Re
--------------------------
 NewGTO Re
 S 7
    1         14.781862000000        -0.664426169918
    2         12.324075000000         1.129500671218
    3          5.509859728400        -1.003968581335
    4          0.988741046900         1.048515292956
    5          0.428333120300         0.262266935642
    6          0.122968045300        -0.003596762102
    7          0.043949851600         0.001408861857
 P 18
    1          7.404005000000        -0.074067732455
    2          6.350206000000         0.103396906704
    3          1.331171345500        -0.072357503695
    4          0.626596005500        -0.069953527773
    5          7.404005000000        -0.506127074914
    6          6.350206000000         0.706542136650
    7          1.331171345500        -0.494440567835
    8          0.626596005500        -0.478013477912
    9          7.404005000000         0.246444256852
   10          6.350206000000        -0.344030699862
   11          1.331171345500         0.240753842932
   12          0.626596005500         0.232755136345
   13          0.259227187000        -0.008841423124
   14          0.259227187000        -0.060416101260
   15          0.259227187000         0.029417910866
   16          0.048300000000         0.000551195203
   17          0.048300000000         0.003766482472
   18          0.048300000000        -0.001833982056
 D 18
    1         14.781862000000        -0.000037001489
    2         12.324075000000         0.000075445576
    3          5.509859728400        -0.000155830908
    4          0.988741046900         0.001718759284
    5          0.428333120300        -0.002825722125
    6          0.122968045300        -0.000763602383
    7          0.043949851600         0.013596986704
    8          4.061627491600        -0.031002336071
    9          1.848794328600         0.073060430397
   10          0.787020484300         0.182618842829
   11          0.320698431700         0.174937616059
   12          4.061627491600         0.038338670372
   13          1.848794328600        -0.090349312767
   14          0.787020484300        -0.225833421158
   15          0.320698431700        -0.216334523381
   16          4.061627491600         0.064730820523
   17          1.848794328600        -0.152545330662
   18          0.787020484300        -0.381296025950
 S 7
    1         14.781862000000        -3.855894735296
    2         12.324075000000         6.554882827993
    3          5.509859728400        -3.880843356040
    4          0.988741046900         1.649027858907
    5          0.428333120300        -1.198149281217
    6          0.122968045300         0.465076892545
    7          0.043949851600        -0.161359657522
 S 7
    1         14.781862000000        -3.352999968101
    2         12.324075000000         5.699979750998
    3          5.509859728400        -1.763953597496
    4          0.988741046900         0.568009896240
    5          0.428333120300        -0.404933991604
    6          0.122968045300         0.156583622137
    7          0.043949851600        -0.054398720005
 P 18
    1          7.404005000000        -0.030016508156
    2          6.350206000000         0.041902377601
    3          1.331171345500        -0.029323425030
    4          0.626596005500        -0.028349195626
    5          7.404005000000        -0.205111820878
    6          6.350206000000         0.286331538773
    7          1.331171345500        -0.200375775592
    8          0.626596005500        -0.193718573295
    9          7.404005000000         0.099873396965
   10          6.350206000000        -0.139421040256
   11          1.331171345500         0.097567313733
   12          0.626596005500         0.094325777459
   13          0.259227187000         0.043057602612
   14          0.259227187000         0.294225538442
   15          0.259227187000        -0.143264800012
   16          0.048300000000         0.113616514165
   17          0.048300000000         0.776375785659
   18          0.048300000000        -0.378034219108
 D 18
    1          4.061627491600         0.009634346401
    2          1.848794328600        -0.022704401793
    3          0.787020484300        -0.056750987641
    4          0.320698431700        -0.054363954634
    5          4.061627491600         0.041021795368
    6          1.848794328600        -0.096672393278
    7          0.787020484300        -0.241638332788
    8          0.320698431700        -0.231474656347
    9          4.061627491600        -0.010649490626
   10          1.848794328600         0.025096701322
   11          0.787020484300         0.062730681018
   12          0.320698431700         0.060092132997
   13          4.061627491600         0.046730238358
   14          1.848794328600        -0.110124969908
   15          0.787020484300        -0.275263839290
   16          0.320698431700        -0.263685822813
   17          4.061627491600         0.043674407105
   18          1.848794328600        -0.102923565922
 D 18
    1          4.061627491600         0.006857400863
    2          1.848794328600        -0.016160222806
    3          0.787020484300        -0.040393427368
    4          0.320698431700        -0.038694418269
    5          4.061627491600         0.029197922020
    6          1.848794328600        -0.068808129315
    7          0.787020484300        -0.171989966175
    8          0.320698431700        -0.164755806152
    9          4.061627491600        -0.007579946077
   10          1.848794328600         0.017862980438
   11          0.787020484300         0.044649570216
   12          0.320698431700         0.042771541264
   13          4.061627491600         0.033260998045
   14          1.848794328600        -0.078383216897
   15          0.787020484300        -0.195923460745
   16          0.320698431700        -0.187682621475
   17          4.061627491600         0.031085961047
   18          1.848794328600        -0.073257501892
 P 18
    1          7.404005000000        -0.485429091575
    2          6.350206000000         0.677648212381
    3          1.331171345500        -0.474220502276
    4          0.626596005500        -0.458465195490
    5          7.404005000000         0.200859168389
    6          6.350206000000        -0.280394930510
    7          1.331171345500         0.196221317127
    8          0.626596005500         0.189702140848
    9          7.404005000000         0.266614576966
   10          6.350206000000        -0.372188018006
   11          1.331171345500         0.260458429042
   12          0.626596005500         0.251805065396
   13          0.259227187000         1.270736714278
   14          0.259227187000        -0.525801036860
   15          0.259227187000        -0.697932895643
   16          0.048300000000        -0.608293965588
   17          0.048300000000         0.251697770457
   18          0.048300000000         0.334096248290
 end
  // -----------------------------------------------
  // The basis set
  // -----------------------------------------------
  BAS[ATNO] = new BFNGauss[NSH];
  // Basis function   1 L = s
  InitBFNGauss(BAS[ATNO][  0]);
  BAS[ATNO][  0].l  = 0;
  BAS[ATNO][  0].ng = 7;
  BAS[ATNO][  0].a[  0] =        14.781862000000;     BAS[ATNO][  0].d[  0] =        -0.664426169918;
  BAS[ATNO][  0].a[  1] =        12.324075000000;     BAS[ATNO][  0].d[  1] =         1.129500671218;
  BAS[ATNO][  0].a[  2] =         5.509859728400;     BAS[ATNO][  0].d[  2] =        -1.003968581335;
  BAS[ATNO][  0].a[  3] =         0.988741046900;     BAS[ATNO][  0].d[  3] =         1.048515292956;
  BAS[ATNO][  0].a[  4] =         0.428333120300;     BAS[ATNO][  0].d[  4] =         0.262266935642;
  BAS[ATNO][  0].a[  5] =         0.122968045300;     BAS[ATNO][  0].d[  5] =        -0.003596762102;
  BAS[ATNO][  0].a[  6] =         0.043949851600;     BAS[ATNO][  0].d[  6] =         0.001408861857;

FINAL SINGLE POINT ENERGY       -76.744962111266

DIPOLE MOMENT
-------------
                                X             Y             Z
Electronic contribution:      0.00000      -0.00000      -0.00000
Nuclear contribution   :      0.00000       0.00000       0.00000
                        -----------------------------------------
Total Dipole Moment    :      0.00000      -0.00000      -0.00000
                        -----------------------------------------
Magnitude (a.u.)       :      0.00000
Magnitude (Debye)      :      0.00000

Rotational constants in cm-1:     0.000000     0.000000     0.000000
Rotational constants in MHz :     0.000000     0.000000     0.000000

                             ****ORCA TERMINATED NORMALLY****
TOTAL RUN TIME: 0 days 0 hours 0 minutes 1 seconds 347 msec
