                         Program Version 4.2.0 -  RELEASE  -
|  1> #
|  2> # 76_Os CCSD(T)/Def2-SVP
|  3> #
|  4> ! CCSD(T) Def2-SVP tightscf
|  5>
|  6> *xyz 0 5
|  7>  Os 0.0 0.0 0.0
|  8> *
|  9>
| 10> %maxcore 5000
| 11>
| 12> %pal
| 13> nprocs 24
| 14> end
| 15>
| 16> %method
| 17> NewNCore Os 60 end
| 18> end
| 19>
| 20>
| 21>                          ****END OF INPUT****

CARTESIAN COORDINATES (ANGSTROEM)
---------------------------------
  Os     0.000000    0.000000    0.000000

 Total Charge           Charge          ....    0
 Multiplicity           Mult            ....    5
 Number of Electrons    NEL             ....   16
 Basis Dimension        Dim             ....   32

ORBITAL ENERGIES
----------------
                 SPIN UP ORBITALS
  NO   OCC          E(Eh)            E(eV)
   0   1.0000      -4.081903      -111.0742
   1   1.0000      -2.424852       -65.9836
   2   1.0000      -2.373124       -64.5760
   3   1.0000      -2.373117       -64.5758
   4   1.0000      -0.504385       -13.7250
   5   1.0000      -0.496350       -13.5064
   6   1.0000      -0.496348       -13.5063
   7   1.0000      -0.475666       -12.9435
   8   1.0000      -0.442357       -12.0372
   9   1.0000      -0.324169        -8.8211
  10   0.0000       0.050574         1.3762
  11   0.0000       0.062027         1.6878
  12   0.0000       0.062028         1.6879
  13   0.0000       0.206439         5.6175
  14   0.0000       0.518547        14.1104

                 SPIN DOWN ORBITALS
  NO   OCC          E(Eh)            E(eV)
   0   1.0000      -3.884941      -105.7146
   1   1.0000      -2.121398       -57.7262
   2   1.0000      -2.121394       -57.7261
   3   1.0000      -2.091184       -56.9040
   4   1.0000      -0.341261        -9.2862
   5   1.0000      -0.246938        -6.7195
   6   0.0000       0.069417         1.8889
   7   0.0000       0.072739         1.9793
   8   0.0000       0.072740         1.9794
   9   0.0000       0.100713         2.7405
  10   0.0000       0.109804         2.9879

E(0)                                       ...    -89.831744567
E(0)                                       ...    -89.831744567
E(CORR)                                    ...     -0.251217371
E(TOT)                                     ...    -90.082961938
E(CCSD(T))                                 ...    -90.088730153

MULLIKEN ATOMIC CHARGES AND SPIN DENSITIES
------------------------------------------
   0 Os:    0.000000    4.000000
Sum of atomic charges       :    0.0000000

LOEWDIN ATOMIC CHARGES AND SPIN DENSITIES
-----------------------------------------
   0 Os:    0.000000    4.000000

FINAL SINGLE POINT ENERGY       -90.088730152835

DIPOLE MOMENT
-------------
                                X             Y             Z
Electronic contribution:      0.00000       0.00000      -0.00000
Nuclear contribution   :      0.00000       0.00000       0.00000
                        -----------------------------------------
Total Dipole Moment    :      0.00000       0.00000      -0.00000
                        -----------------------------------------
Magnitude (a.u.)       :      0.00000
Magnitude (Debye)      :      0.00000

Rotational constants in cm-1:     0.000000     0.000000     0.000000
Rotational constants in MHz :     0.000000     0.000000     0.000000

                             ****ORCA TERMINATED NORMALLY****
TOTAL RUN TIME: 0 days 0 hours 0 minutes 15 seconds 956 msec
