                         Program Version 4.2.0 -  RELEASE  -
|  1> # input to generate an atomic fitting density for Os
|  2> # this file is use internally by ORCA
|  3> #
|  4> # atomic ground state (S=5): 1s2 2s2 2p6 3s2 3p6 4s2 3d10 4p6 5s2 4d10 5p6 6s2 4f14 5d6
|  5> #
|  6> ! RHF AllowRHF def2-SVP def2/J  NoMulliken NoLoewdin NoMayer NoPrintMOs
|  7>
|  8> %output print[p_atomdensfit] 2 end
|  9>
| 10> %scf
| 11>   guess hcore
| 12>   maxiter 1000
| 13>   maxdisk 500000
| 14>   SCFMode Conventional
| 15>   lshift 1.000000
| 16>   hftyp rohf
| 17>   rohf_case sahf
| 18>   rohf_numop   2
| 19>   rohf_norb[1] 5
| 20>   rohf_nel[1]  6
| 21> end
| 22>
| 23> %basis
| 24>   NewECP 76
| 25>     N_core 60
| 26>     lmax f
| 27>     s 3
| 28>       1      13.8757539000    885.4057191000  2
| 29>       2       6.9378769000     25.9670401000  2
| 30>       3       2.7670751000    -18.9094570000  2
| 31>     p 3
| 32>       1      10.1937926000    320.0839019000  2
| 33>       2       5.0968962000     26.1487649000  2
| 34>       3       2.7670751000    -18.9094570000  2
| 35>     d 3
| 36>       1       7.0992385000    115.0448431000  2
| 37>       2       3.5496192000     13.6225746000  2
| 38>       3       2.7670751000    -18.9094570000  2
| 39>     f 1
| 40>       1       2.7670751000     18.9094570000  2
| 41>   end
| 42>   NewGTO 76
| 43>     s 2
| 44>      1      15.2867360000     -1.3399300444
| 45>      2      12.7006380000      2.3198012485
| 46>     s 1
| 47>      1       5.7094832504      1.0000000000
| 48>     s 1
| 49>      1       1.0689228744      1.0000000000
| 50>     s 1
| 51>      1       0.4678354375      1.0000000000
| 52>     s 1
| 53>      1       0.1325345699      1.0000000000
| 54>     s 1
| 55>      1       0.0471019829      1.0000000000
| 56>     p 4
| 57>      1       7.9362790000      0.3726407596
| 58>      2       6.3036410000     -0.6197542002
| 59>      3       1.4351579676      0.5755707405
| 60>      4       0.6844274972      0.5765083972
| 61>     p 1
| 62>      1       0.2834739497      1.0000000000
| 63>     p 1
| 64>      1       0.0581000000      1.0000000000
| 65>     d 4
| 66>      1       3.5808150000     -0.4890386345
| 67>      2       3.1961650000      0.5087889911
| 68>      3       1.0550226354      0.4995059512
| 69>      4       0.4158840662      0.5513109964
| 70>     d 1
| 71>      1       0.1465350787      1.0000000000
| 72>   end
| 73>   NewAuxGTO 76
| 74>     S 1
| 75>      1 1310.72 1.0
| 76>     S 1
| 77>      1  655.36 1.0
| 78>     S 1
| 79>      1  327.68 1.0
| 80>     S 1
| 81>      1  163.84 1.0
| 82>     S 1
| 83>      1   81.82 1.0
| 84>     S 1
| 85>      1   40.96 1.0
| 86>     S 1
| 87>      1   20.48 1.0
| 88>     S 1
| 89>      1   10.24 1.0
| 90>     S 1
| 91>      1    5.12 1.0
| 92>     S 1
| 93>      1    2.56 1.0
| 94>     S 1
| 95>      1    1.28 1.0
| 96>     S 1
| 97>      1    0.64 1.0
| 98>     S 1
| 99>      1    0.32 1.0
|100>     S 1
|101>      1    0.16 1.0
|102>     S 1
|103>      1    0.08 1.0
|104>     S 1
|105>      1    0.04 1.0
|106>     S 1
|107>      1    0.02 1.0
|108>     S 1
|109>      1    0.01 1.0
|110>   end
|111> end
|112>
|113> * xyz 0 5
|114> 76  0.0 0.0 0.0
|115> *
|116>
|117>
|118>                          ****END OF INPUT****

CARTESIAN COORDINATES (ANGSTROEM)
---------------------------------
  Os     0.000000    0.000000    0.000000

 Total Charge           Charge          ....    0
 Multiplicity           Mult            ....    5
 Number of Electrons    NEL             ....   16
 Basis Dimension        Dim             ....   25

ORBITAL ENERGIES
----------------

  NO   OCC          E(Eh)            E(eV)
   0   2.0000      -3.891950      -105.9053
   1   2.0000      -2.174302       -59.1658
   2   2.0000      -2.173066       -59.1321
   3   2.0000      -2.164577       -58.9011
   4   2.0000      -0.321228        -8.7411
   5   1.2000      -0.385497       -10.4899
   6   1.2000      -0.385376       -10.4866
   7   1.2000      -0.368118       -10.0170
   8   1.2000      -0.365547        -9.9471
   9   1.2000      -0.290550        -7.9063
  10   0.0000       0.029311         0.7976
  11   0.0000       0.030374         0.8265
  12   0.0000       0.037739         1.0269
  13   0.0000       0.193031         5.2526
  14   0.0000       0.511323        13.9138

CleanUpVectors: The p-vectors have cracked symmetry
CleanUpVectors: The p-vectors have cracked symmetry
CleanUpVectors: The p-vectors have cracked symmetry
CleanUpVectors: The d-vectors have cracked symmetry at i=4
CleanUpVectors: The d-vectors have cracked symmetry at i=5
CleanUpVectors: The d-vectors have cracked symmetry at i=6
CleanUpVectors: The d-vectors have cracked symmetry at i=8
CleanUpVectors: The d-vectors have cracked symmetry at i=9
CleanUpVectors: The p-vectors have cracked symmetry
CleanUpVectors: The p-vectors have cracked symmetry
CleanUpVectors: The p-vectors have cracked symmetry
CleanUpVectors: The d-vectors have cracked symmetry at i=14
CleanUpVectors: The d-vectors have cracked symmetry at i=15
CleanUpVectors: The d-vectors have cracked symmetry at i=16
CleanUpVectors: The d-vectors have cracked symmetry at i=17
CleanUpVectors: The d-vectors have cracked symmetry at i=18
CleanUpVectors: The p-vectors have cracked symmetry
CleanUpVectors: The p-vectors have cracked symmetry
CleanUpVectors: The p-vectors have cracked symmetry
--------------------------
ATOM BASIS FOR ELEMENT Os
--------------------------
 NewGTO Os
 S 7
    1         15.286736000000        -0.628830924978
    2         12.700638000000         1.088685764572
    3          5.709483250400        -1.003511451400
    4          1.068922874400         1.005123375113
    5          0.467835437500         0.308011609475
    6          0.132534569900         0.006698774772
    7          0.047101982900        -0.002037285647
 P 18
    1          7.936279000000        -0.038467909821
    2          6.303641000000         0.063977565712
    3          1.435157967600        -0.059416482955
    4          0.684427497200        -0.059513277770
    5          7.936279000000        -0.069717266182
    6          6.303641000000         0.115949657760
    7          1.435157967600        -0.107683385375
    8          0.684427497200        -0.107858811331
    9          7.936279000000        -0.327754748220
   10          6.303641000000         0.545102425358
   11          1.435157967600        -0.506241033155
   12          0.684427497200        -0.507065745503
   13          0.283473949700        -0.014825201227
   14          0.283473949700        -0.026868434104
   15          0.283473949700        -0.126313857917
   16          0.058100000000        -0.000154507133
   17          0.058100000000        -0.000280020802
   18          0.058100000000        -0.001316433537
 D 18
    1         15.286736000000         0.000062610865
    2         12.700638000000        -0.000130469075
    3          5.709483250400         0.000277968075
    4          1.068922874400        -0.002695507277
    5          0.467835437500         0.002776555788
    6          0.132534569900         0.024234868361
    7          0.047101982900        -0.105152050440
    8          3.580815000000         0.387093484664
    9          3.196165000000        -0.402726675623
   10          1.055022635400        -0.395378781184
   11          0.415884066200        -0.436384530127
   12          3.580815000000         0.069184953352
   13          3.196165000000        -0.071979062864
   14          1.055022635400        -0.070665778724
   15          0.415884066200        -0.077994708143
   16          3.580815000000        -0.091710414454
   17          3.196165000000         0.095414239186
   18          1.055022635400         0.093673371744
 S 7
    1         15.286736000000        -3.755611497016
    2         12.700638000000         6.502035144349
    3          5.709483250400        -3.976299319216
    4          1.068922874400         1.753599545173
    5          0.467835437500        -1.253139086272
    6          0.132534569900         0.471080154653
    7          0.047101982900        -0.163209455882
 S 7
    1         15.286736000000        -3.244632750289
    2         12.700638000000         5.617385128799
    3          5.709483250400        -1.805407972817
    4          1.068922874400         0.598873591075
    5          0.467835437500        -0.419456798913
    6          0.132534569900         0.157300626058
    7          0.047101982900        -0.054615865447
 D 18
    1          3.580815000000        -0.009853905990
    2          3.196165000000         0.010251866690
    3          1.055022635400         0.010064817659
    4          0.415884066200         0.011108665750
    5          3.580815000000         0.035554572055
    6          3.196165000000        -0.036990482078
    7          1.055022635400        -0.036315577300
    8          0.415884066200        -0.040081959100
    9          3.580815000000        -0.057561171155
   10          3.196165000000         0.059885841593
   11          1.055022635400         0.058793202666
   12          0.415884066200         0.064890796728
   13          3.580815000000         0.160558696686
   14          3.196165000000        -0.167043034100
   15          1.055022635400        -0.163995273284
   16          0.415884066200        -0.181003644305
   17          3.580815000000         0.374310844339
   18          3.196165000000        -0.389427794480
 P 18
    1          7.936279000000        -0.067038159899
    2          6.303641000000         0.111493925719
    3          1.435157967600        -0.103545310974
    4          0.684427497200        -0.103713995634
    5          7.936279000000        -0.006483090959
    6          6.303641000000         0.010782295679
    7          1.435157967600        -0.010013605242
    8          0.684427497200        -0.010029918309
    9          7.936279000000         0.009247162044
   10          6.303641000000        -0.015379336182
   11          1.435157967600         0.014282913955
   12          0.684427497200         0.014306182111
   13          0.283473949700        -0.061793465025
   14          0.283473949700        -0.005975889777
   15          0.283473949700         0.008523715228
   16          0.058100000000         1.022351945640
   17          0.058100000000         0.098869071967
   18          0.058100000000        -0.141021980943
 D 18
    1         15.286736000000         0.000114143058
    2         12.700638000000        -0.000237852316
    3          5.709483250400         0.000511050717
    4          1.068922874400        -0.005548143544
    5          0.467835437500         0.008006146356
    6          0.132534569900         0.003129067348
    7          0.047101982900         0.025748510697
    8          3.580815000000         0.360969324440
    9          3.196165000000        -0.375547462805
   10          1.055022635400        -0.368695462973
   11          0.415884066200        -0.406933816446
   12          3.580815000000         0.064192463542
   13          3.196165000000        -0.066784945928
   14          1.055022635400        -0.065566430338
   15          0.415884066200        -0.072366493238
   16          3.580815000000        -0.085720409979
   17          3.196165000000         0.089182321872
   18          1.055022635400         0.087555158024
 P 18
    1          7.936279000000        -0.407889057587
    2          6.303641000000         0.678377096822
    3          1.435157967600        -0.630014298943
    4          0.684427497200        -0.631040649115
    5          7.936279000000        -0.039445919539
    6          6.303641000000         0.065604133970
    7          1.435157967600        -0.060927090057
    8          0.684427497200        -0.061026345787
    9          7.936279000000         0.056263719310
   10          6.303641000000        -0.093574509667
   11          1.435157967600         0.086903404291
   12          0.684427497200         0.087044977782
   13          0.283473949700         1.600305147588
   14          0.283473949700         0.154761464953
   15          0.283473949700        -0.220744140986
   16          0.058100000000        -0.577945642729
   17          0.058100000000        -0.055891661954
   18          0.058100000000         0.079721117334
 end
  // -----------------------------------------------
  // The basis set
  // -----------------------------------------------
  BAS[ATNO] = new BFNGauss[NSH];
  // Basis function   1 L = s
  InitBFNGauss(BAS[ATNO][  0]);
  BAS[ATNO][  0].l  = 0;
  BAS[ATNO][  0].ng = 7;
  BAS[ATNO][  0].a[  0] =        15.286736000000;     BAS[ATNO][  0].d[  0] =        -0.628830924978;
  BAS[ATNO][  0].a[  1] =        12.700638000000;     BAS[ATNO][  0].d[  1] =         1.088685764572;
  BAS[ATNO][  0].a[  2] =         5.709483250400;     BAS[ATNO][  0].d[  2] =        -1.003511451400;
  BAS[ATNO][  0].a[  3] =         1.068922874400;     BAS[ATNO][  0].d[  3] =         1.005123375113;
  BAS[ATNO][  0].a[  4] =         0.467835437500;     BAS[ATNO][  0].d[  4] =         0.308011609475;
  BAS[ATNO][  0].a[  5] =         0.132534569900;     BAS[ATNO][  0].d[  5] =         0.006698774772;
  BAS[ATNO][  0].a[  6] =         0.047101982900;     BAS[ATNO][  0].d[  6] =        -0.002037285647;

FINAL SINGLE POINT ENERGY       -89.789155251871

DIPOLE MOMENT
-------------
                                X             Y             Z
Electronic contribution:     -0.00000       0.00000      -0.00000
Nuclear contribution   :      0.00000       0.00000       0.00000
                        -----------------------------------------
Total Dipole Moment    :     -0.00000       0.00000      -0.00000
                        -----------------------------------------
Magnitude (a.u.)       :      0.00000
Magnitude (Debye)      :      0.00000

Rotational constants in cm-1:     0.000000     0.000000     0.000000
Rotational constants in MHz :     0.000000     0.000000     0.000000

                             ****ORCA TERMINATED NORMALLY****
TOTAL RUN TIME: 0 days 0 hours 0 minutes 0 seconds 982 msec
