                         Program Version 4.2.0 -  RELEASE  -
|  1> #
|  2> # 77_Ir CCSD(T)/Def2-SVP
|  3> #
|  4> ! CCSD(T) Def2-SVP tightscf
|  5>
|  6> *xyz 0 4
|  7>  Ir 0.0 0.0 0.0
|  8> *
|  9>
| 10> %maxcore 5000
| 11>
| 12> %pal
| 13> nprocs 24
| 14> end
| 15>
| 16> %method
| 17> NewNCore Ir 60 end
| 18> end
| 19>
| 20>
| 21>                          ****END OF INPUT****

CARTESIAN COORDINATES (ANGSTROEM)
---------------------------------
  Ir     0.000000    0.000000    0.000000

 Total Charge           Charge          ....    0
 Multiplicity           Mult            ....    4
 Number of Electrons    NEL             ....   17
 Basis Dimension        Dim             ....   32

ORBITAL ENERGIES
----------------
                 SPIN UP ORBITALS
  NO   OCC          E(Eh)            E(eV)
   0   1.0000      -4.202456      -114.3546
   1   1.0000      -2.413626       -65.6781
   2   1.0000      -2.413625       -65.6781
   3   1.0000      -2.413625       -65.6781
   4   1.0000      -0.425274       -11.5723
   5   1.0000      -0.425274       -11.5723
   6   1.0000      -0.390467       -10.6252
   7   1.0000      -0.390466       -10.6251
   8   1.0000      -0.390466       -10.6251
   9   1.0000      -0.289567        -7.8795
  10   0.0000       0.062243         1.6937
  11   0.0000       0.062244         1.6937
  12   0.0000       0.062244         1.6938
  13   0.0000       0.246428         6.7056
  14   0.0000       0.592247        16.1159

                 SPIN DOWN ORBITALS
  NO   OCC          E(Eh)            E(eV)
   0   1.0000      -4.098037      -111.5133
   1   1.0000      -2.272745       -61.8445
   2   1.0000      -2.272744       -61.8445
   3   1.0000      -2.272744       -61.8445
   4   1.0000      -0.334902        -9.1131
   5   1.0000      -0.334902        -9.1131
   6   1.0000      -0.334902        -9.1131
   7   0.0000       0.011054         0.3008
   8   0.0000       0.110225         2.9994
   9   0.0000       0.110225         2.9994
  10   0.0000       0.110226         2.9994
  11   0.0000       0.166273         4.5245

E(0)                                       ...   -103.431012251
E(0)                                       ...   -103.431012251
E(CORR)                                    ...     -0.269730560
E(TOT)                                     ...   -103.700742810
E(CCSD(T))                                 ...   -103.706134770

MULLIKEN ATOMIC CHARGES AND SPIN DENSITIES
------------------------------------------
   0 Ir:   -0.000000    3.000000
Sum of atomic charges       :   -0.0000000

LOEWDIN ATOMIC CHARGES AND SPIN DENSITIES
-----------------------------------------
   0 Ir:   -0.000000    3.000000

FINAL SINGLE POINT ENERGY      -103.706134769848

DIPOLE MOMENT
-------------
                                X             Y             Z
Electronic contribution:      0.00000       0.00000      -0.00000
Nuclear contribution   :      0.00000       0.00000       0.00000
                        -----------------------------------------
Total Dipole Moment    :      0.00000       0.00000      -0.00000
                        -----------------------------------------
Magnitude (a.u.)       :      0.00000
Magnitude (Debye)      :      0.00000

Rotational constants in cm-1:     0.000000     0.000000     0.000000
Rotational constants in MHz :     0.000000     0.000000     0.000000

                             ****ORCA TERMINATED NORMALLY****
TOTAL RUN TIME: 0 days 0 hours 0 minutes 18 seconds 284 msec
