                         Program Version 4.2.0 -  RELEASE  -
|  1> # input to generate an atomic fitting density for Ir
|  2> # this file is use internally by ORCA
|  3> #
|  4> # atomic ground state (S=4): 1s2 2s2 2p6 3s2 3p6 4s2 3d10 4p6 5s2 4d10 5p6 6s2 4f14 5d7
|  5> #
|  6> ! RHF AllowRHF def2-SVP def2/J  NoMulliken NoLoewdin NoMayer NoPrintMOs
|  7>
|  8> %output print[p_atomdensfit] 2 end
|  9>
| 10> %scf
| 11>   guess hcore
| 12>   maxiter 1000
| 13>   maxdisk 500000
| 14>   SCFMode Conventional
| 15>   lshift 1.000000
| 16>   hftyp rohf
| 17>   rohf_case sahf
| 18>   rohf_numop   2
| 19>   rohf_norb[1] 5
| 20>   rohf_nel[1]  7
| 21> end
| 22>
| 23> %basis
| 24>   NewECP 77
| 25>     N_core 60
| 26>     lmax f
| 27>     s 3
| 28>       1      13.6522026000    732.2691998000  2
| 29>       2       6.8261013000     26.4847209000  2
| 30>       3       3.0340719000    -21.5310311000  2
| 31>     p 3
| 32>       1      10.2798684000    299.4894736000  2
| 33>       2       5.1399341000     26.4662335000  2
| 34>       3       3.0340719000    -21.5310311000  2
| 35>     d 3
| 36>       1       7.3498590000    124.4575945000  2
| 37>       2       3.6749295000     14.0359952000  2
| 38>       3       3.0340719000    -21.5310311000  2
| 39>     f 1
| 40>       1       3.0340719000     21.5310311000  2
| 41>   end
| 42>   NewGTO 77
| 43>     s 2
| 44>      1      15.2937090000     -2.2767275940
| 45>      2      13.5736820000      3.2567766805
| 46>     s 1
| 47>      1       5.8213436542      1.0000000000
| 48>     s 1
| 49>      1       1.1520364268      1.0000000000
| 50>     s 1
| 51>      1       0.5110489534      1.0000000000
| 52>     s 1
| 53>      1       0.1408404358      1.0000000000
| 54>     s 1
| 55>      1       0.0498286731      1.0000000000
| 56>     p 4
| 57>      1       8.6697960000      0.2380148136
| 58>      2       6.2456140000     -0.4973674832
| 59>      3       1.5657036153      0.5615609832
| 60>      4       0.7557741286      0.5992421398
| 61>     p 1
| 62>      1       0.3130601111      1.0000000000
| 63>     p 1
| 64>      1       0.0548000000      1.0000000000
| 65>     d 4
| 66>      1       3.6994850000     -0.6275241978
| 67>      2       3.3617430000      0.6503556447
| 68>      3       1.1177053710      0.5069655799
| 69>      4       0.4432253486      0.5387080233
| 70>     d 1
| 71>      1       0.1564130512      1.0000000000
| 72>   end
| 73>   NewAuxGTO 77
| 74>     S 1
| 75>      1 1310.72 1.0
| 76>     S 1
| 77>      1  655.36 1.0
| 78>     S 1
| 79>      1  327.68 1.0
| 80>     S 1
| 81>      1  163.84 1.0
| 82>     S 1
| 83>      1   81.82 1.0
| 84>     S 1
| 85>      1   40.96 1.0
| 86>     S 1
| 87>      1   20.48 1.0
| 88>     S 1
| 89>      1   10.24 1.0
| 90>     S 1
| 91>      1    5.12 1.0
| 92>     S 1
| 93>      1    2.56 1.0
| 94>     S 1
| 95>      1    1.28 1.0
| 96>     S 1
| 97>      1    0.64 1.0
| 98>     S 1
| 99>      1    0.32 1.0
|100>     S 1
|101>      1    0.16 1.0
|102>     S 1
|103>      1    0.08 1.0
|104>     S 1
|105>      1    0.04 1.0
|106>     S 1
|107>      1    0.02 1.0
|108>     S 1
|109>      1    0.01 1.0
|110>   end
|111> end
|112>
|113> * xyz 0 4
|114> 77  0.0 0.0 0.0
|115> *
|116>
|117>
|118>                          ****END OF INPUT****

CARTESIAN COORDINATES (ANGSTROEM)
---------------------------------
  Ir     0.000000    0.000000    0.000000

 Total Charge           Charge          ....    0
 Multiplicity           Mult            ....    4
 Number of Electrons    NEL             ....   17
 Basis Dimension        Dim             ....   25

ORBITAL ENERGIES
----------------

  NO   OCC          E(Eh)            E(eV)
   0   2.0000      -4.197871      -114.2299
   1   2.0000      -2.386723       -64.9460
   2   2.0000      -2.384205       -64.8775
   3   2.0000      -2.378640       -64.7261
   4   2.0000      -0.387600       -10.5471
   5   1.4000      -0.424197       -11.5430
   6   1.4000      -0.423609       -11.5270
   7   1.4000      -0.410960       -11.1828
   8   1.4000      -0.405168       -11.0252
   9   1.4000      -0.298103        -8.1118
  10   0.0000       0.020214         0.5500
  11   0.0000       0.022004         0.5988
  12   0.0000       0.025967         0.7066
  13   0.0000       0.195707         5.3255
  14   0.0000       0.525880        14.3099

CleanUpVectors: The p-vectors have cracked symmetry
CleanUpVectors: The p-vectors have cracked symmetry
CleanUpVectors: The p-vectors have cracked symmetry
CleanUpVectors: The d-vectors have cracked symmetry at i=4
CleanUpVectors: The d-vectors have cracked symmetry at i=5
CleanUpVectors: The d-vectors have cracked symmetry at i=6
CleanUpVectors: The d-vectors have cracked symmetry at i=7
CleanUpVectors: The d-vectors have cracked symmetry at i=8
CleanUpVectors: The p-vectors have cracked symmetry
CleanUpVectors: The p-vectors have cracked symmetry
CleanUpVectors: The p-vectors have cracked symmetry
CleanUpVectors: The d-vectors have cracked symmetry at i=14
CleanUpVectors: The d-vectors have cracked symmetry at i=15
CleanUpVectors: The d-vectors have cracked symmetry at i=16
CleanUpVectors: The d-vectors have cracked symmetry at i=17
CleanUpVectors: The d-vectors have cracked symmetry at i=18
CleanUpVectors: The p-vectors have cracked symmetry
CleanUpVectors: The p-vectors have cracked symmetry
CleanUpVectors: The p-vectors have cracked symmetry
--------------------------
ATOM BASIS FOR ELEMENT Ir
--------------------------
 NewGTO Ir
 S 7
    1         15.293709000000        -1.002310117688
    2         13.573682000000         1.433768460714
    3          5.821343654200        -0.990073406487
    4          1.152036426800         1.003883582667
    5          0.511048953400         0.321651646003
    6          0.140840435800         0.009192071352
    7          0.049828673100        -0.000443209426
 P 17
    1          8.669796000000        -0.001479508357
    2          6.245614000000         0.003091653569
    3          1.565703615300        -0.003490682597
    4          0.755774128600        -0.003724909976
    5          8.669796000000        -0.000264813267
    6          6.245614000000         0.000553366851
    7          1.565703615300        -0.000624787996
    8          0.755774128600        -0.000666711732
    9          8.669796000000        -0.213908777660
   10          6.245614000000         0.446994322621
   11          1.565703615300        -0.504686333093
   12          0.755774128600        -0.538551158678
   13          0.313060111100        -0.000946249707
   14          0.313060111100        -0.000169366719
   15          0.313060111100        -0.136809715966
   16          0.054800000000        -0.000010912169
   17          0.054800000000        -0.001577692123
 D 18
    1         15.293709000000         0.000072216220
    2         13.573682000000        -0.000116392987
    3          5.821343654200         0.000195588218
    4          1.152036426800        -0.001821950362
    5          0.511048953400         0.001911576228
    6          0.140840435800         0.012424601355
    7          0.049828673100        -0.053038414770
    8          3.699485000000         0.528749851559
    9          3.361743000000        -0.547987554585
   10          1.117705371000        -0.427167551558
   11          0.443225348600        -0.453913631302
   12          3.699485000000         0.001219366095
   13          3.361743000000        -0.001263730747
   14          1.117705371000        -0.000985104067
   15          0.443225348600        -0.001046784014
   16          3.699485000000        -0.005759639583
   17          3.361743000000         0.005969194697
   18          1.117705371000         0.004653109842
 S 7
    1         15.293709000000        -6.202212753601
    2         13.573682000000         8.872041572588
    3          5.821343654200        -3.962435632783
    4          1.152036426800         1.887581037902
    5          0.511048953400        -1.320301695038
    6          0.140840435800         0.475122235888
    7          0.049828673100        -0.165876111455
 S 7
    1         15.293709000000        -5.408787290760
    2         13.573682000000         7.737075074222
    3          5.821343654200        -1.780336816859
    4          1.152036426800         0.635210204770
    5          0.511048953400        -0.434338318276
    6          0.140840435800         0.155851931293
    7          0.049828673100        -0.054543782422
 D 18
    1          3.699485000000        -0.000007947848
    2          3.361743000000         0.000008237018
    3          1.117705371000         0.000006420925
    4          0.443225348600         0.000006822955
    5          3.699485000000         0.003737517777
    6          3.361743000000        -0.003873501280
    7          1.117705371000        -0.003019473789
    8          0.443225348600        -0.003208530955
    9          3.699485000000        -0.000668033895
   10          3.361743000000         0.000692339222
   11          1.117705371000         0.000539692640
   12          0.443225348600         0.000573484211
   13          3.699485000000         0.001333642058
   14          3.361743000000        -0.001382164455
   15          1.117705371000        -0.001077425575
   16          0.443225348600        -0.001144886013
   17          3.699485000000         0.540491931218
   18          3.361743000000        -0.560156850708
 P 18
    1          8.669796000000        -0.042119210223
    2          6.245614000000         0.088014377198
    3          1.565703615300        -0.099374088304
    4          0.755774128600        -0.106042163002
    5          8.669796000000        -0.000051341741
    6          6.245614000000         0.000107286233
    7          1.565703615300        -0.000121133295
    8          0.755774128600        -0.000129261429
    9          8.669796000000         0.000291382711
   10          6.245614000000        -0.000608887671
   11          1.565703615300         0.000687474696
   12          0.755774128600         0.000733604755
   13          0.313060111100        -0.026508077219
   14          0.313060111100        -0.000032312354
   15          0.313060111100         0.000183384146
   16          0.054800000000         1.018392188673
   17          0.054800000000         0.001241381974
   18          0.054800000000        -0.007045285868
 D 18
    1         15.293709000000         0.000121295298
    2         13.573682000000        -0.000195495168
    3          5.821343654200         0.000331298329
    4          1.152036426800        -0.003361111077
    5          0.511048953400         0.004111017979
    6          0.140840435800         0.006110844662
    7          0.049828673100         0.010492069807
    8          3.699485000000         0.458542720176
    9          3.361743000000        -0.475226050960
   10          1.117705371000        -0.370448465346
   11          0.443225348600        -0.393643214478
   12          3.699485000000         0.001050172558
   13          3.361743000000        -0.001088381378
   14          1.117705371000        -0.000848415633
   15          0.443225348600        -0.000901537159
   16          3.699485000000        -0.005035647365
   17          3.361743000000         0.005218861201
   18          1.117705371000         0.004068209474
 P 18
    1          8.669796000000        -0.267741640946
    2          6.245614000000         0.559486126476
    3          1.565703615300        -0.631697064812
    4          0.755774128600        -0.674084404273
    5          8.669796000000        -0.000326367042
    6          6.245614000000         0.000681992654
    7          1.565703615300        -0.000770015086
    8          0.755774128600        -0.000821683667
    9          8.669796000000         0.001852249477
   10          6.245614000000        -0.003870551781
   11          1.565703615300         0.004370110506
   12          0.755774128600         0.004663348148
   13          0.313060111100         1.579846805273
   14          0.313060111100         0.001925774142
   15          0.313060111100        -0.010929455758
   16          0.054800000000        -0.512247425364
   17          0.054800000000        -0.000624410445
   18          0.054800000000         0.003543752188
 end
  // -----------------------------------------------
  // The basis set
  // -----------------------------------------------
  BAS[ATNO] = new BFNGauss[NSH];
  // Basis function   1 L = s
  InitBFNGauss(BAS[ATNO][  0]);
  BAS[ATNO][  0].l  = 0;
  BAS[ATNO][  0].ng = 7;
  BAS[ATNO][  0].a[  0] =        15.293709000000;     BAS[ATNO][  0].d[  0] =        -1.002310117688;
  BAS[ATNO][  0].a[  1] =        13.573682000000;     BAS[ATNO][  0].d[  1] =         1.433768460714;
  BAS[ATNO][  0].a[  2] =         5.821343654200;     BAS[ATNO][  0].d[  2] =        -0.990073406487;
  BAS[ATNO][  0].a[  3] =         1.152036426800;     BAS[ATNO][  0].d[  3] =         1.003883582667;
  BAS[ATNO][  0].a[  4] =         0.511048953400;     BAS[ATNO][  0].d[  4] =         0.321651646003;
  BAS[ATNO][  0].a[  5] =         0.140840435800;     BAS[ATNO][  0].d[  5] =         0.009192071352;
  BAS[ATNO][  0].a[  6] =         0.049828673100;     BAS[ATNO][  0].d[  6] =        -0.000443209426;

FINAL SINGLE POINT ENERGY      -103.404122757249

DIPOLE MOMENT
-------------
                                X             Y             Z
Electronic contribution:     -0.00000       0.00000      -0.00000
Nuclear contribution   :      0.00000       0.00000       0.00000
                        -----------------------------------------
Total Dipole Moment    :     -0.00000       0.00000      -0.00000
                        -----------------------------------------
Magnitude (a.u.)       :      0.00000
Magnitude (Debye)      :      0.00000

Rotational constants in cm-1:     0.000000     0.000000     0.000000
Rotational constants in MHz :     0.000000     0.000000     0.000000

                             ****ORCA TERMINATED NORMALLY****
TOTAL RUN TIME: 0 days 0 hours 0 minutes 0 seconds 970 msec
