                         Program Version 4.2.0 -  RELEASE  -
|  1> #
|  2> # 78_Pt CCSD(T)/Def2-SVP
|  3> #
|  4> ! CCSD(T) Def2-SVP tightscf
|  5>
|  6> *xyz 0 3
|  7>  Pt 0.0 0.0 0.0
|  8> *
|  9>
| 10> %maxcore 5000
| 11>
| 12> %pal
| 13> nprocs 24
| 14> end
| 15>
| 16> %method
| 17> NewNCore Pt 60 end
| 18> end
| 19>
| 20>
| 21>                          ****END OF INPUT****

CARTESIAN COORDINATES (ANGSTROEM)
---------------------------------
  Pt     0.000000    0.000000    0.000000

 Total Charge           Charge          ....    0
 Multiplicity           Mult            ....    3
 Number of Electrons    NEL             ....   18
 Basis Dimension        Dim             ....   32

ORBITAL ENERGIES
----------------
                 SPIN UP ORBITALS
  NO   OCC          E(Eh)            E(eV)
   0   1.0000      -4.463486      -121.4576
   1   1.0000      -2.592551       -70.5469
   2   1.0000      -2.590607       -70.4940
   3   1.0000      -2.534019       -68.9542
   4   1.0000      -0.480570       -13.0770
   5   1.0000      -0.443513       -12.0686
   6   1.0000      -0.420853       -11.4520
   7   1.0000      -0.420146       -11.4327
   8   1.0000      -0.415018       -11.2932
   9   1.0000      -0.289775        -7.8852
  10   0.0000       0.055921         1.5217
  11   0.0000       0.056206         1.5294
  12   0.0000       0.065825         1.7912
  13   0.0000       0.235936         6.4201
  14   0.0000       0.465194        12.6586

                 SPIN DOWN ORBITALS
  NO   OCC          E(Eh)            E(eV)
   0   1.0000      -4.404263      -119.8461
   1   1.0000      -2.518091       -68.5207
   2   1.0000      -2.486603       -67.6639
   3   1.0000      -2.485453       -67.6326
   4   1.0000      -0.418507       -11.3881
   5   1.0000      -0.382522       -10.4090
   6   1.0000      -0.381254       -10.3744
   7   1.0000      -0.369527       -10.0553
   8   0.0000       0.001443         0.0393
   9   0.0000       0.098222         2.6728
  10   0.0000       0.098338         2.6759
  11   0.0000       0.101201         2.7538
  12   0.0000       0.114276         3.1096

E(0)                                       ...   -118.393520446
E(0)                                       ...   -118.393520446
E(CORR)                                    ...     -0.274131790
E(TOT)                                     ...   -118.667652236
E(CCSD(T))                                 ...   -118.673555148

MULLIKEN ATOMIC CHARGES AND SPIN DENSITIES
------------------------------------------
   0 Pt:   -0.000000    2.000000
Sum of atomic charges       :   -0.0000000

LOEWDIN ATOMIC CHARGES AND SPIN DENSITIES
-----------------------------------------
   0 Pt:   -0.000000    2.000000

FINAL SINGLE POINT ENERGY      -118.673555148112

DIPOLE MOMENT
-------------
                                X             Y             Z
Electronic contribution:     -0.00000      -0.00000      -0.00000
Nuclear contribution   :      0.00000       0.00000       0.00000
                        -----------------------------------------
Total Dipole Moment    :     -0.00000      -0.00000      -0.00000
                        -----------------------------------------
Magnitude (a.u.)       :      0.00000
Magnitude (Debye)      :      0.00000

Rotational constants in cm-1:     0.000000     0.000000     0.000000
Rotational constants in MHz :     0.000000     0.000000     0.000000

                             ****ORCA TERMINATED NORMALLY****
TOTAL RUN TIME: 0 days 0 hours 0 minutes 19 seconds 883 msec
