                         Program Version 4.2.0 -  RELEASE  -
|  1> # input to generate an atomic fitting density for Pt
|  2> # this file is use internally by ORCA
|  3> #
|  4> # atomic ground state (S=3): 1s2 2s2 2p6 3s2 3p6 4s2 3d10 4p6 5s2 4d10 5p6 6s2 4f14 5d8
|  5> #
|  6> ! RHF AllowRHF def2-SVP def2/J  NoMulliken NoLoewdin NoMayer NoPrintMOs
|  7>
|  8> %output print[p_atomdensfit] 2 end
|  9>
| 10> %scf
| 11>   guess hcore
| 12>   maxiter 1000
| 13>   maxdisk 500000
| 14>   SCFMode Conventional
| 15>   lshift 1.000000
| 16>   hftyp rohf
| 17>   rohf_case sahf
| 18>   rohf_numop   2
| 19>   rohf_norb[1] 5
| 20>   rohf_nel[1]  8
| 21> end
| 22>
| 23> %basis
| 24>   NewECP 78
| 25>     N_core 60
| 26>     lmax f
| 27>     s 3
| 28>       1      13.4286513000    579.2238609000  2
| 29>       2       6.7143256000     29.6694906000  2
| 30>       3       3.3095686000    -24.3143757000  2
| 31>     p 3
| 32>       1      10.3659442000    280.8607742000  2
| 33>       2       5.1829721000     26.7453820000  2
| 34>       3       3.3095686000    -24.3143757000  2
| 35>     d 3
| 36>       1       7.6004795000    120.3964443000  2
| 37>       2       3.8002397000     15.8109206000  2
| 38>       3       3.3095686000    -24.3143757000  2
| 39>     f 1
| 40>       1       3.3095686000     24.3143757000  2
| 41>   end
| 42>   NewGTO 78
| 43>     s 2
| 44>      1      16.5595630000     -1.4034868456
| 45>      2      13.8924400000      2.3840288102
| 46>     s 1
| 47>      1       5.8531044732      1.0000000000
| 48>     s 1
| 49>      1       1.2498640609      1.0000000000
| 50>     s 1
| 51>      1       0.5560643946      1.0000000000
| 52>     s 1
| 53>      1       0.1379309381      1.0000000000
| 54>     s 1
| 55>      1       0.0489890341      1.0000000000
| 56>     p 4
| 57>      1       8.1000000000      0.7892094612
| 58>      2       7.2000000000     -1.0324576713
| 59>      3       1.5588402917      0.6181267861
| 60>      4       0.7323040218      0.5355635830
| 61>     p 1
| 62>      1       0.3027048467      1.0000000000
| 63>     p 1
| 64>      1       0.0500000000      1.0000000000
| 65>     d 4
| 66>      1       4.6299536825     -0.0961222016
| 67>      2       2.1980241252      0.2317061738
| 68>      3       0.9362999126      0.5095943996
| 69>      4       0.3716002816      0.4504073694
| 70>     d 1
| 71>      1       0.1315592862      1.0000000000
| 72>   end
| 73>   NewAuxGTO 78
| 74>     S 1
| 75>      1 1310.72 1.0
| 76>     S 1
| 77>      1  655.36 1.0
| 78>     S 1
| 79>      1  327.68 1.0
| 80>     S 1
| 81>      1  163.84 1.0
| 82>     S 1
| 83>      1   81.82 1.0
| 84>     S 1
| 85>      1   40.96 1.0
| 86>     S 1
| 87>      1   20.48 1.0
| 88>     S 1
| 89>      1   10.24 1.0
| 90>     S 1
| 91>      1    5.12 1.0
| 92>     S 1
| 93>      1    2.56 1.0
| 94>     S 1
| 95>      1    1.28 1.0
| 96>     S 1
| 97>      1    0.64 1.0
| 98>     S 1
| 99>      1    0.32 1.0
|100>     S 1
|101>      1    0.16 1.0
|102>     S 1
|103>      1    0.08 1.0
|104>     S 1
|105>      1    0.04 1.0
|106>     S 1
|107>      1    0.02 1.0
|108>     S 1
|109>      1    0.01 1.0
|110>   end
|111> end
|112>
|113> * xyz 0 3
|114> 78  0.0 0.0 0.0
|115> *
|116>
|117>
|118>                          ****END OF INPUT****

CARTESIAN COORDINATES (ANGSTROEM)
---------------------------------
  Pt     0.000000    0.000000    0.000000

 Total Charge           Charge          ....    0
 Multiplicity           Mult            ....    3
 Number of Electrons    NEL             ....   18
 Basis Dimension        Dim             ....   25

ORBITAL ENERGIES
----------------

  NO   OCC          E(Eh)            E(eV)
   0   2.0000      -4.507800      -122.6635
   1   2.0000      -2.600447       -70.7618
   2   2.0000      -2.596459       -70.6533
   3   2.0000      -2.594868       -70.6100
   4   2.0000      -0.459494       -12.5035
   5   1.6000      -0.477704       -12.9990
   6   1.6000      -0.475337       -12.9346
   7   1.6000      -0.471423       -12.8281
   8   1.6000      -0.461553       -12.5595
   9   1.6000      -0.307627        -8.3709
  10   0.0000       0.023273         0.6333
  11   0.0000       0.025623         0.6972
  12   0.0000       0.026557         0.7227
  13   0.0000       0.186300         5.0695
  14   0.0000       0.417116        11.3503

CleanUpVectors: The p-vectors have cracked symmetry
CleanUpVectors: The p-vectors have cracked symmetry
CleanUpVectors: The p-vectors have cracked symmetry
CleanUpVectors: The d-vectors have cracked symmetry at i=4
CleanUpVectors: The d-vectors have cracked symmetry at i=5
CleanUpVectors: The d-vectors have cracked symmetry at i=6
CleanUpVectors: The d-vectors have cracked symmetry at i=7
CleanUpVectors: The d-vectors have cracked symmetry at i=8
CleanUpVectors: The p-vectors have cracked symmetry
CleanUpVectors: The p-vectors have cracked symmetry
CleanUpVectors: The p-vectors have cracked symmetry
CleanUpVectors: The d-vectors have cracked symmetry at i=14
CleanUpVectors: The d-vectors have cracked symmetry at i=15
CleanUpVectors: The d-vectors have cracked symmetry at i=16
CleanUpVectors: The d-vectors have cracked symmetry at i=17
CleanUpVectors: The d-vectors have cracked symmetry at i=18
CleanUpVectors: The p-vectors have cracked symmetry
CleanUpVectors: The p-vectors have cracked symmetry
CleanUpVectors: The p-vectors have cracked symmetry
--------------------------
ATOM BASIS FOR ELEMENT Pt
--------------------------
 NewGTO Pt
 S 7
    1         16.559563000000        -0.539776873880
    2         13.892440000000         0.916890402246
    3          5.853104473200        -0.950986436287
    4          1.249864060900         0.996325913568
    5          0.556064394600         0.346049456308
    6          0.137930938100         0.009539876410
    7          0.048989034100         0.001187225135
 P 18
    1          8.100000000000        -0.641066692393
    2          7.200000000000         0.838654700578
    3          1.558840291700        -0.502098002781
    4          0.732304021800        -0.435032765823
    5          8.100000000000        -0.330870018109
    6          7.200000000000         0.432849965940
    7          1.558840291700        -0.259144917751
    8          0.732304021800        -0.224530927615
    9          8.100000000000        -0.135276001816
   10          7.200000000000         0.176970440275
   11          1.558840291700        -0.105951238993
   12          0.732304021800        -0.091799330581
   13          0.302704846700        -0.086373874497
   14          0.302704846700        -0.044579644767
   15          0.302704846700        -0.018226360131
   16          0.050000000000        -0.001134402805
   17          0.050000000000        -0.000585492713
   18          0.050000000000        -0.000239378333
 D 18
    1         16.559563000000         0.000010625073
    2         13.892440000000        -0.000021513220
    3          5.853104473200         0.000055724723
    4          1.249864060900        -0.000512351692
    5          0.556064394600         0.000642726593
    6          0.137930938100         0.002718157699
    7          0.048989034100        -0.014645039972
    8          4.629953682500        -0.020580184882
    9          2.198024125200         0.049609307899
   10          0.936299912600         0.109106395651
   11          0.371600281600         0.096434192936
   12          4.629953682500         0.027418156524
   13          2.198024125200        -0.066092495126
   14          0.936299912600        -0.145358083557
   15          0.371600281600        -0.128475415129
   16          4.629953682500        -0.022193573498
   17          2.198024125200         0.053498441697
   18          0.936299912600         0.117659818162
 S 7
    1         16.559563000000        -3.572708515719
    2         13.892440000000         6.068770832177
    3          5.853104473200        -3.869609182945
    4          1.249864060900         2.006249594229
    5          0.556064394600        -1.319559730101
    6          0.137930938100         0.437647282400
    7          0.048989034100        -0.161894219093
 S 7
    1         16.559563000000        -3.207733796350
    2         13.892440000000         5.448807596541
    3          5.853104473200        -1.718167816474
    4          1.249864060900         0.663281883080
    5          0.556064394600        -0.424496486490
    6          0.137930938100         0.140249107568
    7          0.048989034100        -0.052017363287
 D 18
    1          4.629953682500         0.060661597133
    2          2.198024125200        -0.146227056126
    3          0.936299912600        -0.321599065099
    4          0.371600281600        -0.284246822623
    5          4.629953682500        -0.051608351601
    6          2.198024125200         0.124403868061
    7          0.936299912600         0.273603043944
    8          0.371600281600         0.241825317114
    9          4.629953682500         0.011858799026
   10          2.198024125200        -0.028586080037
   11          0.936299912600        -0.062869737368
   12          0.371600281600        -0.055567708446
   13          4.629953682500        -0.036908785979
   14          2.198024125200         0.088970013550
   15          0.936299912600         0.195672907174
   16          0.371600281600         0.172946404929
   17          4.629953682500        -0.012398406848
   18          2.198024125200         0.029886824938
 P 18
    1          8.100000000000         0.026481895065
    2          7.200000000000        -0.034644080000
    3          1.558840291700         0.020741222060
    4          0.732304021800         0.017970816751
    5          8.100000000000         0.004549016479
    6          7.200000000000        -0.005951103213
    7          1.558840291700         0.003562893090
    8          0.732304021800         0.003086997412
    9          8.100000000000        -0.136622858408
   10          7.200000000000         0.178732421712
   11          1.558840291700        -0.107006127685
   12          0.732304021800        -0.092713317777
   13          0.302704846700        -0.003312801355
   14          0.302704846700        -0.000569067581
   15          0.302704846700         0.017091087679
   16          0.050000000000        -0.190605007168
   17          0.050000000000        -0.032741815358
   18          0.050000000000         0.983351109974
 D 18
    1         16.559563000000         0.000015578153
    2         13.892440000000        -0.000031542018
    3          5.853104473200         0.000082261819
    4          1.249864060900        -0.000790655813
    5          0.556064394600         0.000924837210
    6          0.137930938100         0.001137359933
    7          0.048989034100         0.006064312791
    8          4.629953682500        -0.013438677416
    9          2.198024125200         0.032394436177
   10          0.936299912600         0.071245504526
   11          0.371600281600         0.062970669027
   12          4.629953682500         0.017151362415
   13          2.198024125200        -0.041344002682
   14          0.936299912600        -0.090928402459
   15          0.371600281600        -0.080367489493
   16          4.629953682500        -0.014289006646
   17          2.198024125200         0.034444186693
   18          0.936299912600         0.075753547476
 P 18
    1          8.100000000000         0.154025042020
    2          7.200000000000        -0.201498263799
    3          1.558840291700         0.120635913383
    4          0.732304021800         0.104522572817
    5          8.100000000000         0.026458168971
    6          7.200000000000        -0.034613041107
    7          1.558840291700         0.020722639244
    8          0.732304021800         0.017954716042
    9          8.100000000000        -0.794631254893
   10          7.200000000000         1.039550556986
   11          1.558840291700        -0.622373258139
   12          0.732304021800        -0.539242853712
   13          0.302704846700        -0.287303887378
   14          0.302704846700        -0.049352590323
   15          0.302704846700         1.482230717609
   16          0.050000000000         0.095717687414
   17          0.050000000000         0.016442227276
   18          0.050000000000        -0.493817531670
 end
  // -----------------------------------------------
  // The basis set
  // -----------------------------------------------
  BAS[ATNO] = new BFNGauss[NSH];
  // Basis function   1 L = s
  InitBFNGauss(BAS[ATNO][  0]);
  BAS[ATNO][  0].l  = 0;
  BAS[ATNO][  0].ng = 7;
  BAS[ATNO][  0].a[  0] =        16.559563000000;     BAS[ATNO][  0].d[  0] =        -0.539776873880;
  BAS[ATNO][  0].a[  1] =        13.892440000000;     BAS[ATNO][  0].d[  1] =         0.916890402246;
  BAS[ATNO][  0].a[  2] =         5.853104473200;     BAS[ATNO][  0].d[  2] =        -0.950986436287;
  BAS[ATNO][  0].a[  3] =         1.249864060900;     BAS[ATNO][  0].d[  3] =         0.996325913568;
  BAS[ATNO][  0].a[  4] =         0.556064394600;     BAS[ATNO][  0].d[  4] =         0.346049456308;
  BAS[ATNO][  0].a[  5] =         0.137930938100;     BAS[ATNO][  0].d[  5] =         0.009539876410;
  BAS[ATNO][  0].a[  6] =         0.048989034100;     BAS[ATNO][  0].d[  6] =         0.001187225135;

FINAL SINGLE POINT ENERGY      -118.362150621204

DIPOLE MOMENT
-------------
                                X             Y             Z
Electronic contribution:     -0.00000       0.00000       0.00000
Nuclear contribution   :      0.00000       0.00000       0.00000
                        -----------------------------------------
Total Dipole Moment    :     -0.00000       0.00000       0.00000
                        -----------------------------------------
Magnitude (a.u.)       :      0.00000
Magnitude (Debye)      :      0.00000

Rotational constants in cm-1:     0.000000     0.000000     0.000000
Rotational constants in MHz :     0.000000     0.000000     0.000000

                             ****ORCA TERMINATED NORMALLY****
TOTAL RUN TIME: 0 days 0 hours 0 minutes 1 seconds 15 msec
