                         Program Version 4.2.0 -  RELEASE  -
|  1> # input to generate an atomic fitting density for Au
|  2> # this file is use internally by ORCA
|  3> #
|  4> # atomic ground state (S=2): 1s2 2s2 2p6 3s2 3p6 4s2 3d10 4p6 5s2 4d10 5p6 6s1 4f14 5d10
|  5> #
|  6> ! RHF AllowRHF def2-SVP def2/J  NoMulliken NoLoewdin NoMayer NoPrintMOs
|  7>
|  8> %output print[p_atomdensfit] 2 end
|  9>
| 10> %scf
| 11>   guess hcore
| 12>   maxiter 1000
| 13>   maxdisk 500000
| 14>   SCFMode Conventional
| 15>   lshift 1.000000
| 16>   hftyp rohf
| 17>   rohf_case sahf
| 18>   rohf_numop   2
| 19>   rohf_norb[1] 1
| 20>   rohf_nel[1]  1
| 21> end
| 22>
| 23> %basis
| 24>   NewECP 79
| 25>     N_core 60
| 26>     lmax f
| 27>     s 4
| 28>       1      13.2051000000    426.8466792000  2
| 29>       2       6.6025500000     37.0070829000  2
| 30>       3       4.7898200000    -30.4900889000  2
| 31>       4       2.3949100000     -5.1710738000  2
| 32>     p 4
| 33>       1      10.4520200000    261.1995804000  2
| 34>       2       5.2260100000     26.9624960000  2
| 35>       3       4.7898200000    -30.4900889000  2
| 36>       4       2.3949100000     -5.1710738000  2
| 37>     d 4
| 38>       1       7.8511000000    124.7906656000  2
| 39>       2       3.9255500000     16.3007257000  2
| 40>       3       4.7898200000    -30.4900889000  2
| 41>       4       2.3949100000     -5.1710738000  2
| 42>     f 2
| 43>       1       4.7898200000     30.4900889000  2
| 44>       2       2.3949100000      5.1710738000  2
| 45>   end
| 46>   NewGTO 79
| 47>     s 2
| 48>      1      20.1152990000     -0.2482428587
| 49>      2      12.1934770000      1.2342233951
| 50>     s 1
| 51>      1       6.0735294368      1.0000000000
| 52>     s 1
| 53>      1       1.3174451569      1.0000000000
| 54>     s 1
| 55>      1       0.5859676824      1.0000000000
| 56>     s 1
| 57>      1       0.1387542735      1.0000000000
| 58>     s 1
| 59>      1       0.0488769855      1.0000000000
| 60>     p 4
| 61>      1       8.6096650000      0.5413862084
| 62>      2       7.3353260000     -0.7861425454
| 63>      3       1.6575296365      0.6199391821
| 64>      4       0.7815931022      0.5362598472
| 65>     p 1
| 66>      1       0.3238484066      1.0000000000
| 67>     p 1
| 68>      1       0.0540000000      1.0000000000
| 69>     d 4
| 70>      1       4.1439490000     -0.4186461515
| 71>      2       3.5682570000      0.4536014498
| 72>      3       1.2345757130      0.5191045946
| 73>      4       0.4819023234      0.5207988600
| 74>     d 1
| 75>      1       0.1649063677      1.0000000000
| 76>   end
| 77>   NewAuxGTO 79
| 78>     S 1
| 79>      1 1310.72 1.0
| 80>     S 1
| 81>      1  655.36 1.0
| 82>     S 1
| 83>      1  327.68 1.0
| 84>     S 1
| 85>      1  163.84 1.0
| 86>     S 1
| 87>      1   81.82 1.0
| 88>     S 1
| 89>      1   40.96 1.0
| 90>     S 1
| 91>      1   20.48 1.0
| 92>     S 1
| 93>      1   10.24 1.0
| 94>     S 1
| 95>      1    5.12 1.0
| 96>     S 1
| 97>      1    2.56 1.0
| 98>     S 1
| 99>      1    1.28 1.0
|100>     S 1
|101>      1    0.64 1.0
|102>     S 1
|103>      1    0.32 1.0
|104>     S 1
|105>      1    0.16 1.0
|106>     S 1
|107>      1    0.08 1.0
|108>     S 1
|109>      1    0.04 1.0
|110>     S 1
|111>      1    0.02 1.0
|112>     S 1
|113>      1    0.01 1.0
|114>   end
|115> end
|116>
|117> * xyz 0 2
|118> 79  0.0 0.0 0.0
|119> *
|120>
|121>
|122>                          ****END OF INPUT****

CARTESIAN COORDINATES (ANGSTROEM)
---------------------------------
  Au     0.000000    0.000000    0.000000

 Total Charge           Charge          ....    0
 Multiplicity           Mult            ....    2
 Number of Electrons    NEL             ....   19
 Basis Dimension        Dim             ....   25

ORBITAL ENERGIES
----------------

  NO   OCC          E(Eh)            E(eV)
   0   2.0000      -4.686596      -127.5288
   1   2.0000      -2.724970       -74.1502
   2   2.0000      -2.724970       -74.1502
   3   2.0000      -2.724970       -74.1502
   4   2.0000      -0.452084       -12.3018
   5   2.0000      -0.452084       -12.3018
   6   2.0000      -0.452084       -12.3018
   7   2.0000      -0.452084       -12.3018
   8   2.0000      -0.452084       -12.3018
   9   1.0000      -0.289323        -7.8729
  10   0.0000      -0.118960        -3.2371
  11   0.0000      -0.118960        -3.2371
  12   0.0000      -0.118960        -3.2371
  13   0.0000       0.034030         0.9260
  14   0.0000       0.346774         9.4362

--------------------------
ATOM BASIS FOR ELEMENT Au
--------------------------
 NewGTO Au
 S 7
    1         20.115299000000         0.097337576645
    2         12.193477000000        -0.483946708261
    3          6.073529436800         0.954719758452
    4          1.317445156900        -0.991301688220
    5          0.585967682400        -0.352960323889
    6          0.138754273500        -0.008410678846
    7          0.048876985500         0.000923522853
 S 7
    1         20.115299000000         0.032247558314
    2         12.193477000000        -0.160329651029
    3          6.073529436800         0.331989871202
    4          1.317445156900        -0.496675631690
    5          0.585967682400        -0.196706146708
    6          0.138754273500         0.629103526187
    7          0.048876985500         0.560152177270
 S 7
    1         20.115299000000         0.023559435621
    2         12.193477000000        -0.117133708383
    3          6.073529436800         0.244292346587
    4          1.317445156900        -0.245666721014
    5          0.585967682400        -0.636120064964
    6          0.138754273500         2.306713640460
    7          0.048876985500        -1.880834180516
 S 7
    1         20.115299000000         0.129164774898
    2         12.193477000000        -0.642186396967
    3          6.073529436800         1.355972962757
    4          1.317445156900        -3.842586587409
    5          0.585967682400         4.187865225315
    6          0.138754273500        -1.977508364345
    7          0.048876985500         0.753543890928
 S 7
    1         20.115299000000        -0.692960261181
    2         12.193477000000         3.445286485592
    3          6.073529436800        -4.189578804213
    4          1.317445156900         2.126574587575
    5          0.585967682400        -1.365113937223
    6          0.138754273500         0.434233014806
    7          0.048876985500        -0.163103075664
 S 7
    1         20.115299000000        -0.625289074406
    2         12.193477000000         3.108836275789
    3          6.073529436800        -1.993432966275
    4          1.317445156900         0.711469453401
    5          0.585967682400        -0.440622859775
    6          0.138754273500         0.139294726605
    7          0.048876985500        -0.052469835768
 P 6
    1          8.609665000000        -0.500625571359
    2          7.335326000000         0.726954353203
    3          1.657529636500        -0.573264339637
    4          0.781593102200        -0.495885170764
    5          0.323848406600        -0.105856862310
    6          0.054000000000        -0.001180264253
 P 6
    1          8.609665000000        -0.089386416010
    2          7.335326000000         0.129797293533
    3          1.657529636500        -0.102356027495
    4          0.781593102200        -0.088540020133
    5          0.323848406600        -0.004467364645
    6          0.054000000000         1.009602324521
 P 6
    1          8.609665000000        -0.562071011991
    2          7.335326000000         0.816178781812
    3          1.657529636500        -0.643625267968
    4          0.781593102200        -0.556748787333
    5          0.323848406600         1.517922442375
    6          0.054000000000        -0.494262938967
 D 5
    1          4.143949000000         0.370959420212
    2          3.568257000000        -0.401933065006
    3          1.234575713000        -0.459974942448
    4          0.481902323400        -0.461476219142
    5          0.164906367700        -0.216009063992
 D 5
    1          4.143949000000         0.282086060583
    2          3.568257000000        -0.305639131257
    3          1.234575713000        -0.349775507541
    4          0.481902323400        -0.350917112810
    5          0.164906367700         1.092023197008
 end
  // -----------------------------------------------
  // The basis set
  // -----------------------------------------------
  BAS[ATNO] = new BFNGauss[NSH];
  // Basis function   1 L = s
  InitBFNGauss(BAS[ATNO][  0]);
  BAS[ATNO][  0].l  = 0;
  BAS[ATNO][  0].ng = 7;
  BAS[ATNO][  0].a[  0] =        20.115299000000;     BAS[ATNO][  0].d[  0] =        -0.097337576645;
  BAS[ATNO][  0].a[  1] =        12.193477000000;     BAS[ATNO][  0].d[  1] =         0.483946708261;
  BAS[ATNO][  0].a[  2] =         6.073529436800;     BAS[ATNO][  0].d[  2] =        -0.954719758452;
  BAS[ATNO][  0].a[  3] =         1.317445156900;     BAS[ATNO][  0].d[  3] =         0.991301688220;
  BAS[ATNO][  0].a[  4] =         0.585967682400;     BAS[ATNO][  0].d[  4] =         0.352960323889;
  BAS[ATNO][  0].a[  5] =         0.138754273500;     BAS[ATNO][  0].d[  5] =         0.008410678846;
  BAS[ATNO][  0].a[  6] =         0.048876985500;     BAS[ATNO][  0].d[  6] =        -0.000923522853;

FINAL SINGLE POINT ENERGY      -134.784322378923

DIPOLE MOMENT
-------------
                                X             Y             Z
Electronic contribution:     -0.00000      -0.00000      -0.00000
Nuclear contribution   :      0.00000       0.00000       0.00000
                        -----------------------------------------
Total Dipole Moment    :     -0.00000      -0.00000      -0.00000
                        -----------------------------------------
Magnitude (a.u.)       :      0.00000
Magnitude (Debye)      :      0.00000

Rotational constants in cm-1:     0.000000     0.000000     0.000000
Rotational constants in MHz :     0.000000     0.000000     0.000000

                             ****ORCA TERMINATED NORMALLY****
TOTAL RUN TIME: 0 days 0 hours 0 minutes 1 seconds 13 msec
