                         Program Version 4.2.0 -  RELEASE  -
|  1> #
|  2> # 80_Hg CCSD(T)/Def2-SVP
|  3> #
|  4> ! CCSD(T) Def2-SVP tightscf
|  5>
|  6> *xyz 0 1
|  7>  Hg 0.0 0.0 0.0
|  8> *
|  9>
| 10> %maxcore 5000
| 11>
| 12> %pal
| 13> nprocs 24
| 14> end
| 15>
| 16> %method
| 17> NewNCore Hg 60 end
| 18> end
| 19>
| 20>
| 21>                          ****END OF INPUT****

CARTESIAN COORDINATES (ANGSTROEM)
---------------------------------
  Hg     0.000000    0.000000    0.000000

 Total Charge           Charge          ....    0
 Multiplicity           Mult            ....    1
 Number of Electrons    NEL             ....   20
 Basis Dimension        Dim             ....   32

ORBITAL ENERGIES
----------------

  NO   OCC          E(Eh)            E(eV)
   0   2.0000      -5.043146      -137.2310
   1   2.0000      -3.031206       -82.4833
   2   2.0000      -3.031206       -82.4833
   3   2.0000      -3.031206       -82.4833
   4   2.0000      -0.603442       -16.4205
   5   2.0000      -0.603442       -16.4205
   6   2.0000      -0.603442       -16.4205
   7   2.0000      -0.603442       -16.4205
   8   2.0000      -0.603442       -16.4205
   9   2.0000      -0.326572        -8.8865
  10   0.0000       0.083050         2.2599
  11   0.0000       0.083050         2.2599
  12   0.0000       0.083050         2.2599
  13   0.0000       0.263695         7.1755
  14   0.0000       0.658386        17.9156

E(0)                                       ...   -152.550399559
E(0)                                       ...   -152.550399559
E(CORR)                                    ...     -0.344863832
E(TOT)                                     ...   -152.895263390
E(CCSD(T))                                 ...   -152.902106744

MULLIKEN ATOMIC CHARGES
-----------------------
   0 Hg:   -0.000000
Sum of atomic charges:   -0.0000000

LOEWDIN ATOMIC CHARGES
----------------------
   0 Hg:   -0.000000

FINAL SINGLE POINT ENERGY      -152.902106743752

DIPOLE MOMENT
-------------
                                X             Y             Z
Electronic contribution:     -0.00000       0.00000      -0.00000
Nuclear contribution   :      0.00000       0.00000       0.00000
                        -----------------------------------------
Total Dipole Moment    :     -0.00000       0.00000      -0.00000
                        -----------------------------------------
Magnitude (a.u.)       :      0.00000
Magnitude (Debye)      :      0.00000

Rotational constants in cm-1:     0.000000     0.000000     0.000000
Rotational constants in MHz :     0.000000     0.000000     0.000000

                             ****ORCA TERMINATED NORMALLY****
TOTAL RUN TIME: 0 days 0 hours 0 minutes 17 seconds 517 msec
