                         Program Version 4.2.0 -  RELEASE  -
|  1> # input to generate an atomic fitting density for Hg
|  2> # this file is use internally by ORCA
|  3> #
|  4> # atomic ground state (S=1): 1s2 2s2 2p6 3s2 3p6 4s2 3d10 4p6 5s2 4d10 5p6 6s2 4f14 5d10
|  5> #
|  6> ! RHF AllowRHF def2-SVP def2/J  NoMulliken NoLoewdin NoMayer NoPrintMOs
|  7>
|  8> %output print[p_atomdensfit] 2 end
|  9>
| 10> %scf
| 11>   guess hcore
| 12>   maxiter 1000
| 13>   maxdisk 500000
| 14>   SCFMode Conventional
| 15>   lshift 1.000000
| 16>   hftyp rohf
| 17>   rohf_case sahf
| 18>   rohf_numop   2
| 19>   rohf_norb[1] 5
| 20>   rohf_nel[1]  10
| 21> end
| 22>
| 23> %basis
| 24>   NewECP 80
| 25>     N_core 60
| 26>     lmax f
| 27>     s 3
| 28>       1      12.9815487000    275.7372117000  2
| 29>       2       6.4907744000     49.0892125000  2
| 30>       3       3.8857911000    -30.3649964000  2
| 31>     p 3
| 32>       1      10.5380958000    241.5400740000  2
| 33>       2       5.2690479000     27.3965908000  2
| 34>       3       3.8857911000    -30.3649964000  2
| 35>     d 3
| 36>       1       8.1017205000    127.8670076000  2
| 37>       2       4.0508603000     16.6083115000  2
| 38>       3       3.8857911000    -30.3649964000  2
| 39>     f 1
| 40>       1       3.8857911000     30.3649964000  2
| 41>   end
| 42>   NewGTO 80
| 43>     s 2
| 44>      1      26.8420490000     -0.0337639468
| 45>      2      10.3209090000      1.0284638332
| 46>     s 1
| 47>      1       6.3656242291      1.0000000000
| 48>     s 1
| 49>      1       1.3898932095      1.0000000000
| 50>     s 1
| 51>      1       0.6370674270      1.0000000000
| 52>     s 1
| 53>      1       0.1604772510      1.0000000000
| 54>     s 1
| 55>      1       0.0564104235      1.0000000000
| 56>     p 4
| 57>      1       9.7729900000      0.2280750691
| 58>      2       7.1690950000     -0.4734024420
| 59>      3       1.7559567931      0.6280260986
| 60>      4       0.8314567042      0.5307509833
| 61>     p 1
| 62>      1       0.3449491766      1.0000000000
| 63>     p 1
| 64>      1       0.0700000000      1.0000000000
| 65>     d 4
| 66>      1       4.2800000000     -0.3524097817
| 67>      2       3.4800000000      0.4152829297
| 68>      3       1.2535869926      0.5318287562
| 69>      4       0.5084136686      0.4784860850
| 70>     d 1
| 71>      1       0.1850159939      1.0000000000
| 72>   end
| 73>   NewAuxGTO 80
| 74>     S 1
| 75>      1 1310.72 1.0
| 76>     S 1
| 77>      1  655.36 1.0
| 78>     S 1
| 79>      1  327.68 1.0
| 80>     S 1
| 81>      1  163.84 1.0
| 82>     S 1
| 83>      1   81.82 1.0
| 84>     S 1
| 85>      1   40.96 1.0
| 86>     S 1
| 87>      1   20.48 1.0
| 88>     S 1
| 89>      1   10.24 1.0
| 90>     S 1
| 91>      1    5.12 1.0
| 92>     S 1
| 93>      1    2.56 1.0
| 94>     S 1
| 95>      1    1.28 1.0
| 96>     S 1
| 97>      1    0.64 1.0
| 98>     S 1
| 99>      1    0.32 1.0
|100>     S 1
|101>      1    0.16 1.0
|102>     S 1
|103>      1    0.08 1.0
|104>     S 1
|105>      1    0.04 1.0
|106>     S 1
|107>      1    0.02 1.0
|108>     S 1
|109>      1    0.01 1.0
|110>   end
|111> end
|112>
|113> * xyz 0 1
|114> 80  0.0 0.0 0.0
|115> *
|116>
|117>
|118>                          ****END OF INPUT****

CARTESIAN COORDINATES (ANGSTROEM)
---------------------------------
  Hg     0.000000    0.000000    0.000000

 Total Charge           Charge          ....    0
 Multiplicity           Mult            ....    1
 Number of Electrons    NEL             ....   20
 Basis Dimension        Dim             ....   25

ORBITAL ENERGIES
----------------

  NO   OCC          E(Eh)            E(eV)
   0   2.0000      -4.879291      -132.7723
   1   2.0000      -3.031245       -82.4844
   2   2.0000      -3.031245       -82.4844
   3   2.0000      -3.031245       -82.4844
   4   2.0000      -0.603471       -16.4213
   5   2.0000      -0.603475       -16.4214
   6   2.0000      -0.603473       -16.4213
   7   2.0000      -0.603473       -16.4213
   8   2.0000      -0.603472       -16.4213
   9   2.0000      -0.490484       -13.3468
  10   0.0000       0.083041         2.2597
  11   0.0000       0.083041         2.2597
  12   0.0000       0.083041         2.2597
  13   0.0000       0.263687         7.1753
  14   0.0000       0.658371        17.9152

--------------------------
ATOM BASIS FOR ELEMENT Hg
--------------------------
 NewGTO Hg
 S 7
    1         26.842049000000         0.016630809157
    2         10.320909000000        -0.506581349502
    3          6.365624229100         1.074735906898
    4          1.389893209500        -1.067592493902
    5          0.637067427000        -0.387402095504
    6          0.160477251000         0.114298486666
    7          0.056410423500         0.102364275119
 S 7
    1         26.842049000000         0.002634182643
    2         10.320909000000        -0.080238296615
    3          6.365624229100         0.188623201595
    4          1.389893209500        -0.365547100774
    5          0.637067427000        -0.116477284135
    6          0.160477251000         0.651375269253
    7          0.056410423500         0.532135155621
 S 7
    1         26.842049000000         0.003929402098
    2         10.320909000000        -0.119691218808
    3          6.365624229100         0.272073230682
    4          1.389893209500        -0.269533354134
    5          0.637067427000        -0.667037476107
    6          0.160477251000         2.352385797153
    7          0.056410423500        -1.899650584675
 S 7
    1         26.842049000000         0.022270428141
    2         10.320909000000        -0.678366484493
    3          6.365624229100         1.508417301138
    4          1.389893209500        -4.085178582307
    5          0.637067427000         4.543256373093
    6          0.160477251000        -2.168056565914
    7          0.056410423500         0.802846810459
 S 7
    1         26.842049000000        -0.125985629763
    2         10.320909000000         3.837574572721
    3          6.365624229100        -5.297651637819
    4          1.389893209500         2.520905746450
    5          0.637067427000        -1.672609322074
    6          0.160477251000         0.530145764634
    7          0.056410423500        -0.190719714406
 S 7
    1         26.842049000000        -0.113827816495
    2         10.320909000000         3.467242534487
    3          6.365624229100        -2.951569536417
    4          1.389893209500         0.880660095177
    5          0.637067427000        -0.554134456395
    6          0.160477251000         0.173090237483
    7          0.056410423500        -0.062422100420
 P 6
    1          9.772990000000        -0.212153974407
    2          7.169095000000         0.440355931757
    3          1.755956793100        -0.584185870797
    4          0.831456704200        -0.493701179054
    5          0.344949176600        -0.098358092154
    6          0.070000000000        -0.001132332349
 P 6
    1          9.772990000000        -0.048418101719
    2          7.169095000000         0.100498698439
    3          1.755956793100        -0.133323785210
    4          0.831456704200        -0.112673231662
    5          0.344949176600         0.012856512800
    6          0.070000000000         1.007850391007
 P 6
    1          9.772990000000        -0.238256677767
    2          7.169095000000         0.494535827711
    3          1.755956793100        -0.656062113206
    4          0.831456704200        -0.554444492779
    5          0.344949176600         1.593468448029
    6          0.070000000000        -0.623318657153
 D 5
    1          4.280000000000         0.320325159623
    2          3.480000000000        -0.377474115795
    3          1.253586992600        -0.483409201640
    4          0.508413668600        -0.434923034246
    5          0.185015993900        -0.174713718847
 D 5
    1          4.280000000000         0.230893039221
    2          3.480000000000        -0.272086482142
    3          1.253586992600        -0.348445373088
    4          0.508413668600        -0.313496140368
    5          0.185015993900         1.106771120427
 end
  // -----------------------------------------------
  // The basis set
  // -----------------------------------------------
  BAS[ATNO] = new BFNGauss[NSH];
  // Basis function   1 L = s
  InitBFNGauss(BAS[ATNO][  0]);
  BAS[ATNO][  0].l  = 0;
  BAS[ATNO][  0].ng = 7;
  BAS[ATNO][  0].a[  0] =        26.842049000000;     BAS[ATNO][  0].d[  0] =         0.016630809157;
  BAS[ATNO][  0].a[  1] =        10.320909000000;     BAS[ATNO][  0].d[  1] =        -0.506581349502;
  BAS[ATNO][  0].a[  2] =         6.365624229100;     BAS[ATNO][  0].d[  2] =         1.074735906898;
  BAS[ATNO][  0].a[  3] =         1.389893209500;     BAS[ATNO][  0].d[  3] =        -1.067592493902;
  BAS[ATNO][  0].a[  4] =         0.637067427000;     BAS[ATNO][  0].d[  4] =        -0.387402095504;
  BAS[ATNO][  0].a[  5] =         0.160477251000;     BAS[ATNO][  0].d[  5] =         0.114298486666;
  BAS[ATNO][  0].a[  6] =         0.056410423500;     BAS[ATNO][  0].d[  6] =         0.102364275119;

FINAL SINGLE POINT ENERGY      -152.550399544317

DIPOLE MOMENT
-------------
                                X             Y             Z
Electronic contribution:      0.00000      -0.00000       0.00000
Nuclear contribution   :      0.00000       0.00000       0.00000
                        -----------------------------------------
Total Dipole Moment    :      0.00000      -0.00000       0.00000
                        -----------------------------------------
Magnitude (a.u.)       :      0.00000
Magnitude (Debye)      :      0.00000

Rotational constants in cm-1:     0.000000     0.000000     0.000000
Rotational constants in MHz :     0.000000     0.000000     0.000000

                             ****ORCA TERMINATED NORMALLY****
TOTAL RUN TIME: 0 days 0 hours 0 minutes 0 seconds 984 msec
