                         Program Version 4.2.0 -  RELEASE  -
|  1> # input to generate an atomic fitting density for Tl
|  2> # this file is use internally by ORCA
|  3> #
|  4> # atomic ground state (S=2): 1s2 2s2 2p6 3s2 3p6 4s2 3d10 4p6 5s2 4d10 5p6 6s2 4f14 5d10 6p1
|  5> #
|  6> ! RHF AllowRHF def2-SVP def2/J  NoMulliken NoLoewdin NoMayer NoPrintMOs
|  7>
|  8> %output print[p_atomdensfit] 2 end
|  9>
| 10> %scf
| 11>   guess hcore
| 12>   maxiter 1000
| 13>   maxdisk 500000
| 14>   SCFMode Conventional
| 15>   lshift 1.000000
| 16>   hftyp rohf
| 17>   rohf_case sahf
| 18>   rohf_numop   2
| 19>   rohf_norb[1] 3
| 20>   rohf_nel[1]  1
| 21> end
| 22>
| 23> %basis
| 24>   NewECP 81
| 25>     N_core 60
| 26>     lmax f
| 27>     s 6
| 28>       1      12.1678050000    281.2846630000  2
| 29>       2       8.2949090000     62.4342510000  2
| 30>       3       5.6263990000    -15.8254880000  2
| 31>       4       5.5489520000    -21.1040210000  2
| 32>       5       2.8749460000     -2.9151270000  2
| 33>       6       2.8214510000     -3.8969030000  2
| 34>     p 8
| 35>       1       7.1514920000      4.6334080000  2
| 36>       2       5.1728650000      9.3417560000  2
| 37>       3       9.8910720000     72.2992530000  2
| 38>       4       9.0033910000    144.5580370000  2
| 39>       5       5.6263990000    -15.8254880000  2
| 40>       6       5.5489520000    -21.1040210000  2
| 41>       7       2.8749460000     -2.9151270000  2
| 42>       8       2.8214510000     -3.8969030000  2
| 43>     d 8
| 44>       1       7.1302180000     35.9430390000  2
| 45>       2       6.9269060000     53.9095930000  2
| 46>       3       5.4175700000     10.3819390000  2
| 47>       4       5.1386810000     15.5838220000  2
| 48>       5       5.6263990000    -15.8254880000  2
| 49>       6       5.5489520000    -21.1040210000  2
| 50>       7       2.8749460000     -2.9151270000  2
| 51>       8       2.8214510000     -3.8969030000  2
| 52>     f 4
| 53>       1       5.6263990000     15.8254880000  2
| 54>       2       5.5489520000     21.1040210000  2
| 55>       3       2.8749460000      2.9151270000  2
| 56>       4       2.8214510000      3.8969030000  2
| 57>   end
| 58>   NewGTO 81
| 59>     s 6
| 60>      1      45.3569246550      0.0051444678
| 61>      2      20.2788433360     -0.1495292991
| 62>      3      14.4206123940      0.3713407330
| 63>      4       6.2161909754     -0.6748484616
| 64>      5       1.5002511178      0.9718973070
| 65>      6       0.7633087930      0.3350589630
| 66>     s 2
| 67>      1       7.8193195283     -0.0606947030
| 68>      2       1.3176904042      1.0345421504
| 69>     s 1
| 70>      1       0.1764354548      1.0000000000
| 71>     s 1
| 72>      1       0.0652968352      1.0000000000
| 73>     p 4
| 74>      1       9.0323058024      0.7431064747
| 75>      2       7.5356419671     -1.1476573258
| 76>      3       1.0521421998      0.8395533681
| 77>      4       0.5030393266      0.2763096642
| 78>     p 1
| 79>      1       2.0067660913      1.0000000000
| 80>     p 1
| 81>      1       0.1667560506      1.0000000000
| 82>     p 1
| 83>      1       0.0485964015      1.0000000000
| 84>   end
| 85>   NewAuxGTO 81
| 86>     S 1
| 87>      1 1310.72 1.0
| 88>     S 1
| 89>      1  655.36 1.0
| 90>     S 1
| 91>      1  327.68 1.0
| 92>     S 1
| 93>      1  163.84 1.0
| 94>     S 1
| 95>      1   81.82 1.0
| 96>     S 1
| 97>      1   40.96 1.0
| 98>     S 1
| 99>      1   20.48 1.0
|100>     S 1
|101>      1   10.24 1.0
|102>     S 1
|103>      1    5.12 1.0
|104>     S 1
|105>      1    2.56 1.0
|106>     S 1
|107>      1    1.28 1.0
|108>     S 1
|109>      1    0.64 1.0
|110>     S 1
|111>      1    0.32 1.0
|112>     S 1
|113>      1    0.16 1.0
|114>     S 1
|115>      1    0.08 1.0
|116>     S 1
|117>      1    0.04 1.0
|118>     S 1
|119>      1    0.02 1.0
|120>     S 1
|121>      1    0.01 1.0
|122>   end
|123> end
|124>
|125> * xyz 0 2
|126> 81  0.0 0.0 0.0
|127> *
|128>
|129>
|130>                          ****END OF INPUT****

CARTESIAN COORDINATES (ANGSTROEM)
---------------------------------
  Tl     0.000000    0.000000    0.000000

 Total Charge           Charge          ....    0
 Multiplicity           Mult            ....    2
 Number of Electrons    NEL             ....   21
 Basis Dimension        Dim             ....   16

ORBITAL ENERGIES
----------------

  NO   OCC          E(Eh)            E(eV)
   0   2.0000      -9.243714      -251.5342
   1   2.0000      -6.766181      -184.1172
   2   2.0000      -6.761814      -183.9983
   3   2.0000      -6.751179      -183.7089
   4   2.0000      -2.177166       -59.2437
   5   2.0000      -1.274007       -34.6675
   6   2.0000      -1.271750       -34.6061
   7   2.0000      -1.254185       -34.1281
   8   2.0000      -0.356891        -9.7115
   9   2.0000      -0.143883        -3.9152
  10   0.3333      -0.189429        -5.1546
  11   0.3333      -0.189423        -5.1545
  12   0.3333      15.205029       413.7499
  13   0.0000      15.205222       413.7551
  14   0.0000      15.208341       413.8400
  15   0.0000      52.548798      1429.9255
CleanUpVectors: The p-vectors have cracked symmetry
CleanUpVectors: The p-vectors have cracked symmetry
CleanUpVectors: The p-vectors have cracked symmetry
CleanUpVectors: The p-vectors have cracked symmetry
CleanUpVectors: The p-vectors have cracked symmetry
CleanUpVectors: The p-vectors have cracked symmetry
CleanUpVectors: The p-vectors have cracked symmetry
CleanUpVectors: The p-vectors have cracked symmetry
CleanUpVectors: The p-vectors have cracked symmetry
CleanUpVectors: The p-vectors have cracked symmetry
CleanUpVectors: The p-vectors have cracked symmetry
--------------------------
ATOM BASIS FOR ELEMENT Tl
--------------------------
 NewGTO Tl
 S 10
    1         45.356924655000         0.007620660085
    2         20.278843336000        -0.221502399377
    3         14.420612394000         0.550078572166
    4          6.216190975400        -0.999674006097
    5          1.500251117800         1.439701695548
    6          0.763308793000         0.496333258324
    7          7.819319528300         0.028133542827
    8          1.317690404200        -0.479536672172
    9          0.176435454800        -0.101080061430
   10          0.065296835200         0.042430688561
 P 17
    1          9.032305802400        -0.435502705539
    2          7.535641967100         0.672592538801
    3          1.052142199800        -0.492026076613
    4          0.503039326600        -0.161933195878
    5          9.032305802400         0.130639102449
    6          7.535641967100        -0.201759677873
    7          1.052142199800         0.147594594046
    8          0.503039326600         0.048575604921
    9          9.032305802400         0.037770984308
   10          7.535641967100        -0.058333695534
   11          1.052142199800         0.042673234822
   12          0.503039326600         0.014044404599
   13          2.006766091300        -0.513620016911
   14          2.006766091300         0.154072195547
   15          2.006766091300         0.044546069066
   16          0.166756050600         0.084597901405
   17          0.166756050600        -0.025377095867
 S 10
    1         45.356924655000         0.003310547169
    2         20.278843336000        -0.096224491448
    3         14.420612394000         0.238963690741
    4          6.216190975400        -0.434275760087
    5          1.500251117800         0.625431434967
    6          0.763308793000         0.215615792449
    7          7.819319528300        -0.010962579839
    8          1.317690404200         0.186857342728
    9          0.176435454800        -1.622225288372
   10          0.065296835200         0.419886166829
 S 10
    1         45.356924655000         0.001171575092
    2         20.278843336000        -0.034053046720
    3         14.420612394000         0.084567261441
    4          6.216190975400        -0.153686577349
    5          1.500251117800         0.221334979846
    6          0.763308793000         0.076304634542
    7          7.819319528300        -0.007497923751
    8          1.317690404200         0.127802226190
    9          0.176435454800        -1.642724020139
   10          0.065296835200         1.929947024718
 P 17
    1          9.032305802400        -0.129835817632
    2          7.535641967100         0.200519080817
    3          1.052142199800        -0.146687051861
    4          0.503039326600        -0.048276919112
    5          9.032305802400         0.038947254438
    6          7.535641967100        -0.060150332958
    7          1.052142199800         0.044002171634
    8          0.503039326600         0.014481777729
    9          9.032305802400         0.011260611170
   10          7.535641967100        -0.017390943750
   11          1.052142199800         0.012722112317
   12          0.503039326600         0.004187038866
   13          2.006766091300        -0.252910059591
   14          2.006766091300         0.075866217972
   15          2.006766091300         0.021934793449
   16          0.166756050600         1.159689795300
   17          0.166756050600        -0.347875758409
 P 17
    1          9.032305802400        -0.002647817478
    2          7.535641967100         0.004089302447
    3          1.052142199800        -0.002991474516
    4          0.503039326600        -0.000984539340
    5          9.032305802400         0.002706439198
    6          7.535641967100        -0.004179838123
    7          1.052142199800         0.003057704678
    8          0.503039326600         0.001006336684
    9          9.032305802400        -0.039890367977
   10          7.535641967100         0.061606882185
   11          1.052142199800        -0.045067690741
   12          0.503039326600        -0.014832456123
   13          2.006766091300        -0.005598346591
   14          2.006766091300         0.005770925797
   15          2.006766091300        -0.084509411436
   16          0.166756050600         0.046977426977
   17          0.166756050600        -0.048310219469
 P 17
    1          9.032305802400        -0.279210912957
    2          7.535641967100         0.431214719032
    3          1.052142199800        -0.315449360710
    4          0.503039326600        -0.103819137939
    5          9.032305802400        -0.928725546923
    6          7.535641967100         1.434328341728
    7          1.052142199800        -1.049263715909
    8          0.503039326600        -0.345328499671
    9          9.032305802400        -0.007128120764
   10          7.535641967100         0.011008705068
   11          1.052142199800        -0.008053270964
   12          0.503039326600        -0.002650452824
   13          2.006766091300         0.317364606622
   14          2.006766091300         1.055631279630
   15          2.006766091300         0.008112627835
   16          0.166756050600         0.176643146923
   17          0.166756050600         0.587564761400
 S 10
    1         45.356924655000         0.017832104303
    2         20.278843336000        -0.518308630083
    3         14.420612394000         1.287166513678
    4          6.216190975400        -2.339205652343
    5          1.500251117800         3.368856570616
    6          0.763308793000         1.161404173997
    7          7.819319528300         0.212552842886
    8          1.317690404200        -3.622966491048
    9          0.176435454800        -0.548239381038
   10          0.065296835200         0.249025368397
 end
  // -----------------------------------------------
  // The basis set
  // -----------------------------------------------
  BAS[ATNO] = new BFNGauss[NSH];
  // Basis function   1 L = s
  InitBFNGauss(BAS[ATNO][  0]);
  BAS[ATNO][  0].l  = 0;
  BAS[ATNO][  0].ng = 10;
  BAS[ATNO][  0].a[  0] =        45.356924655000;     BAS[ATNO][  0].d[  0] =         0.007620660085;
  BAS[ATNO][  0].a[  1] =        20.278843336000;     BAS[ATNO][  0].d[  1] =        -0.221502399377;
  BAS[ATNO][  0].a[  2] =        14.420612394000;     BAS[ATNO][  0].d[  2] =         0.550078572166;
  BAS[ATNO][  0].a[  3] =         6.216190975400;     BAS[ATNO][  0].d[  3] =        -0.999674006097;
  BAS[ATNO][  0].a[  4] =         1.500251117800;     BAS[ATNO][  0].d[  4] =         1.439701695548;
  BAS[ATNO][  0].a[  5] =         0.763308793000;     BAS[ATNO][  0].d[  5] =         0.496333258324;
  BAS[ATNO][  0].a[  6] =         7.819319528300;     BAS[ATNO][  0].d[  6] =         0.028133542827;
  BAS[ATNO][  0].a[  7] =         1.317690404200;     BAS[ATNO][  0].d[  7] =        -0.479536672172;
  BAS[ATNO][  0].a[  8] =         0.176435454800;     BAS[ATNO][  0].d[  8] =        -0.101080061430;
  BAS[ATNO][  0].a[  9] =         0.065296835200;     BAS[ATNO][  0].d[  9] =         0.042430688561;

FINAL SINGLE POINT ENERGY      -149.640984622761

DIPOLE MOMENT
-------------
                                X             Y             Z
Electronic contribution:      0.00000      -0.00000       0.00000
Nuclear contribution   :      0.00000       0.00000       0.00000
                        -----------------------------------------
Total Dipole Moment    :      0.00000      -0.00000       0.00000
                        -----------------------------------------
Magnitude (a.u.)       :      0.00000
Magnitude (Debye)      :      0.00000

Rotational constants in cm-1:     0.000000     0.000000     0.000000
Rotational constants in MHz :     0.000000     0.000000     0.000000

                             ****ORCA TERMINATED NORMALLY****
TOTAL RUN TIME: 0 days 0 hours 0 minutes 1 seconds 240 msec
