                         Program Version 4.2.0 -  RELEASE  -
|  1> #
|  2> # 81_Tl CCSD(T)/Def2-SVP
|  3> #
|  4> ! CCSD(T) Def2-SVP tightscf
|  5>
|  6> *xyz 0 2
|  7>  Tl 0.0 0.0 0.0
|  8> *
|  9>
| 10> %maxcore 5000
| 11>
| 12> %pal
| 13> nprocs 24
| 14> end
| 15>
| 16>
| 17>                          ****END OF INPUT****

CARTESIAN COORDINATES (ANGSTROEM)
---------------------------------
  Tl     0.000000    0.000000    0.000000

 Total Charge           Charge          ....    0
 Multiplicity           Mult            ....    2
 Number of Electrons    NEL             ....   21
 Basis Dimension        Dim             ....   26

ORBITAL ENERGIES
----------------
                 SPIN UP ORBITALS
  NO   OCC          E(Eh)            E(eV)
   0   1.0000      -5.643298      -153.5620
   1   1.0000      -3.469479       -94.4093
   2   1.0000      -3.469479       -94.4093
   3   1.0000      -3.463518       -94.2471
   4   1.0000      -0.847002       -23.0481
   5   1.0000      -0.847002       -23.0481
   6   1.0000      -0.838857       -22.8264
   7   1.0000      -0.838857       -22.8264
   8   1.0000      -0.836301       -22.7569
   9   1.0000      -0.472798       -12.8655
  10   1.0000      -0.191144        -5.2013
  11   0.0000       0.020945         0.5699
  12   0.0000       0.020945         0.5699
  13   0.0000       0.267862         7.2889
  14   0.0000       0.286469         7.7952
  15   0.0000       0.306391         8.3373

                 SPIN DOWN ORBITALS
  NO   OCC          E(Eh)            E(eV)
   0   1.0000      -5.642402      -153.5376
   1   1.0000      -3.471330       -94.4597
   2   1.0000      -3.471330       -94.4597
   3   1.0000      -3.459337       -94.1333
   4   1.0000      -0.847425       -23.0596
   5   1.0000      -0.847425       -23.0596
   6   1.0000      -0.834957       -22.7203
   7   1.0000      -0.834957       -22.7203
   8   1.0000      -0.831244       -22.6193
   9   1.0000      -0.422402       -11.4942
  10   0.0000       0.033467         0.9107
  11   0.0000       0.033467         0.9107
  12   0.0000       0.064816         1.7637
  13   0.0000       0.284543         7.7428
  14   0.0000       0.311034         8.4637

E(0)                                       ...   -171.513399526
E(0)                                       ...   -171.513399526
E(CORR)                                    ...     -0.065467628
E(TOT)                                     ...   -171.578867153
E(CCSD(T))                                 ...   -171.580749088

MULLIKEN ATOMIC CHARGES AND SPIN DENSITIES
------------------------------------------
   0 Tl:   -0.000000    1.000000
Sum of atomic charges       :   -0.0000000

LOEWDIN ATOMIC CHARGES AND SPIN DENSITIES
-----------------------------------------
   0 Tl:   -0.000000    1.000000

FINAL SINGLE POINT ENERGY      -171.580749088119

DIPOLE MOMENT
-------------
                                X             Y             Z
Electronic contribution:     -0.00000      -0.00000      -0.00000
Nuclear contribution   :      0.00000       0.00000       0.00000
                        -----------------------------------------
Total Dipole Moment    :     -0.00000      -0.00000      -0.00000
                        -----------------------------------------
Magnitude (a.u.)       :      0.00000
Magnitude (Debye)      :      0.00000

Rotational constants in cm-1:     0.000000     0.000000     0.000000
Rotational constants in MHz :     0.000000     0.000000     0.000000

                             ****ORCA TERMINATED NORMALLY****
TOTAL RUN TIME: 0 days 0 hours 0 minutes 10 seconds 132 msec
