                         Program Version 4.2.0 -  RELEASE  -
|  1> #
|  2> # 82_Pb CCSD(T)/Def2-SVP
|  3> #
|  4> ! CCSD(T) Def2-SVP tightscf
|  5>
|  6> *xyz 0 3
|  7>  Pb 0.0 0.0 0.0
|  8> *
|  9>
| 10> %maxcore 5000
| 11>
| 12> %pal
| 13> nprocs 24
| 14> end
| 15>
| 16>
| 17>                          ****END OF INPUT****

CARTESIAN COORDINATES (ANGSTROEM)
---------------------------------
  Pb     0.000000    0.000000    0.000000

 Total Charge           Charge          ....    0
 Multiplicity           Mult            ....    3
 Number of Electrons    NEL             ....   22
 Basis Dimension        Dim             ....   26

ORBITAL ENERGIES
----------------
                 SPIN UP ORBITALS
  NO   OCC          E(Eh)            E(eV)
   0   1.0000      -6.174344      -168.0124
   1   1.0000      -3.860317      -105.0446
   2   1.0000      -3.853496      -104.8590
   3   1.0000      -3.853496      -104.8590
   4   1.0000      -1.082395       -29.4535
   5   1.0000      -1.079057       -29.3626
   6   1.0000      -1.079057       -29.3626
   7   1.0000      -1.069509       -29.1028
   8   1.0000      -1.069509       -29.1028
   9   1.0000      -0.622405       -16.9365
  10   1.0000      -0.253876        -6.9083
  11   1.0000      -0.253876        -6.9083
  12   0.0000      -0.010359        -0.2819
  13   0.0000       0.286882         7.8065
  14   0.0000       0.341213         9.2849
  15   0.0000       0.341213         9.2849
  16   0.0000       0.358901         9.7662

                 SPIN DOWN ORBITALS
  NO   OCC          E(Eh)            E(eV)
   0   1.0000      -6.168701      -167.8589
   1   1.0000      -3.862462      -105.1029
   2   1.0000      -3.846666      -104.6731
   3   1.0000      -3.846666      -104.6731
   4   1.0000      -1.078661       -29.3519
   5   1.0000      -1.073136       -29.2015
   6   1.0000      -1.073136       -29.2015
   7   1.0000      -1.057772       -28.7835
   8   1.0000      -1.057772       -28.7835
   9   1.0000      -0.503094       -13.6899
  10   0.0000       0.018170         0.4944
  11   0.0000       0.055064         1.4984
  12   0.0000       0.055064         1.4984
  13   0.0000       0.321704         8.7540
  14   0.0000       0.369467        10.0537

E(0)                                       ...   -191.833375099
E(0)                                       ...   -191.833375099
E(CORR)                                    ...     -0.067563907
E(TOT)                                     ...   -191.900939006
E(CCSD(T))                                 ...   -191.902344737

MULLIKEN ATOMIC CHARGES AND SPIN DENSITIES
------------------------------------------
   0 Pb:   -0.000000    2.000000
Sum of atomic charges       :   -0.0000000

LOEWDIN ATOMIC CHARGES AND SPIN DENSITIES
-----------------------------------------
   0 Pb:   -0.000000    2.000000

FINAL SINGLE POINT ENERGY      -191.902344737384

DIPOLE MOMENT
-------------
                                X             Y             Z
Electronic contribution:     -0.00000      -0.00000       0.00000
Nuclear contribution   :      0.00000       0.00000       0.00000
                        -----------------------------------------
Total Dipole Moment    :     -0.00000      -0.00000       0.00000
                        -----------------------------------------
Magnitude (a.u.)       :      0.00000
Magnitude (Debye)      :      0.00000

Rotational constants in cm-1:     0.000000     0.000000     0.000000
Rotational constants in MHz :     0.000000     0.000000     0.000000

                             ****ORCA TERMINATED NORMALLY****
TOTAL RUN TIME: 0 days 0 hours 0 minutes 10 seconds 154 msec
