                         Program Version 4.2.0 -  RELEASE  -
|  1> # input to generate an atomic fitting density for Pb
|  2> # this file is use internally by ORCA
|  3> #
|  4> # atomic ground state (S=3): 1s2 2s2 2p6 3s2 3p6 4s2 3d10 4p6 5s2 4d10 5p6 6s2 4f14 5d10 6p2
|  5> #
|  6> ! RHF AllowRHF def2-SVP def2/J  NoMulliken NoLoewdin NoMayer NoPrintMOs
|  7>
|  8> %output print[p_atomdensfit] 2 end
|  9>
| 10> %scf
| 11>   guess hcore
| 12>   maxiter 1000
| 13>   maxdisk 500000
| 14>   SCFMode Conventional
| 15>   lshift 1.000000
| 16>   hftyp rohf
| 17>   rohf_case sahf
| 18>   rohf_numop   2
| 19>   rohf_norb[1] 3
| 20>   rohf_nel[1]  2
| 21> end
| 22>
| 23> %basis
| 24>   NewECP 82
| 25>     N_core 60
| 26>     lmax f
| 27>     s 4
| 28>       1      12.2963030000    281.2854990000  2
| 29>       2       8.6326340000     62.5202170000  2
| 30>       3       3.8875120000    -12.2098920000  2
| 31>       4       3.8119630000    -16.1902910000  2
| 32>     p 6
| 33>       1      10.2417900000     72.2768970000  2
| 34>       2       8.9241760000    144.5910830000  2
| 35>       3       6.5813420000      4.7586930000  2
| 36>       4       6.2554030000      9.9406210000  2
| 37>       5       3.8875120000    -12.2098920000  2
| 38>       6       3.8119630000    -16.1902910000  2
| 39>     d 6
| 40>       1       7.7543360000     35.8485070000  2
| 41>       2       7.7202810000     53.7243420000  2
| 42>       3       4.9702640000     10.1152560000  2
| 43>       4       4.5637890000     14.8337310000  2
| 44>       5       3.8875120000    -12.2098920000  2
| 45>       6       3.8119630000    -16.1902910000  2
| 46>     f 2
| 47>       1       3.8875120000     12.2098920000  2
| 48>       2       3.8119630000     16.1902910000  2
| 49>   end
| 50>   NewGTO 82
| 51>     s 6
| 52>      1      55.7275203330      0.0030229399
| 53>      2      20.3029128270     -0.1461774436
| 54>      3      14.5586287500      0.3824785845
| 55>      4       6.5370530973     -0.6849534349
| 56>      5       1.5933900686      0.9765868920
| 57>      6       0.8305141971      0.3319567519
| 58>     s 2
| 59>      1       8.0719473648     -0.0644329745
| 60>      2       1.4165737490      1.0374469809
| 61>     s 1
| 62>      1       0.2041893337      1.0000000000
| 63>     s 1
| 64>      1       0.0771590078      1.0000000000
| 65>     p 4
| 66>      1       9.5531412199      0.5507346210
| 67>      2       7.5327685129     -0.9760490183
| 68>      3       1.1185539567      0.8637166405
| 69>      4       0.5373985526      0.2591828132
| 70>     p 1
| 71>      1       2.1359869828      1.0000000000
| 72>     p 1
| 73>      1       0.2002749480      1.0000000000
| 74>     p 1
| 75>      1       0.0634080115      1.0000000000
| 76>   end
| 77>   NewAuxGTO 82
| 78>     S 1
| 79>      1 1310.72 1.0
| 80>     S 1
| 81>      1  655.36 1.0
| 82>     S 1
| 83>      1  327.68 1.0
| 84>     S 1
| 85>      1  163.84 1.0
| 86>     S 1
| 87>      1   81.82 1.0
| 88>     S 1
| 89>      1   40.96 1.0
| 90>     S 1
| 91>      1   20.48 1.0
| 92>     S 1
| 93>      1   10.24 1.0
| 94>     S 1
| 95>      1    5.12 1.0
| 96>     S 1
| 97>      1    2.56 1.0
| 98>     S 1
| 99>      1    1.28 1.0
|100>     S 1
|101>      1    0.64 1.0
|102>     S 1
|103>      1    0.32 1.0
|104>     S 1
|105>      1    0.16 1.0
|106>     S 1
|107>      1    0.08 1.0
|108>     S 1
|109>      1    0.04 1.0
|110>     S 1
|111>      1    0.02 1.0
|112>     S 1
|113>      1    0.01 1.0
|114>   end
|115> end
|116>
|117> * xyz 0 3
|118> 82  0.0 0.0 0.0
|119> *
|120>
|121>
|122>                          ****END OF INPUT****

CARTESIAN COORDINATES (ANGSTROEM)
---------------------------------
  Pb     0.000000    0.000000    0.000000

 Total Charge           Charge          ....    0
 Multiplicity           Mult            ....    3
 Number of Electrons    NEL             ....   22
 Basis Dimension        Dim             ....   16

ORBITAL ENERGIES
----------------

  NO   OCC          E(Eh)            E(eV)
   0   2.0000      -9.721974      -264.5484
   1   2.0000      -7.110997      -193.5001
   2   2.0000      -7.106498      -193.3776
   3   2.0000      -7.078581      -192.6180
   4   2.0000      -2.333697       -63.5031
   5   2.0000      -1.404448       -38.2170
   6   2.0000      -1.399316       -38.0773
   7   2.0000      -1.385897       -37.7122
   8   2.0000      -0.387561       -10.5461
   9   2.0000      -0.161024        -4.3817
  10   0.6667      -0.208119        -5.6632
  11   0.6667      -0.207828        -5.6553
  12   0.6667      16.052847       436.8202
  13   0.0000      16.627586       452.4596
  14   0.0000      16.631450       452.5648
  15   0.0000      52.232988      1421.3319
CleanUpVectors: The p-vectors have cracked symmetry
CleanUpVectors: The p-vectors have cracked symmetry
CleanUpVectors: The p-vectors have cracked symmetry
CleanUpVectors: The p-vectors have cracked symmetry
CleanUpVectors: The p-vectors have cracked symmetry
CleanUpVectors: The p-vectors have cracked symmetry
CleanUpVectors: The p-vectors have cracked symmetry
CleanUpVectors: The p-vectors have cracked symmetry
CleanUpVectors: The p-vectors have cracked symmetry
CleanUpVectors: The p-vectors have cracked symmetry
CleanUpVectors: The p-vectors have cracked symmetry
--------------------------
ATOM BASIS FOR ELEMENT Pb
--------------------------
 NewGTO Pb
 S 10
    1         55.727520333000         0.004621475760
    2         20.302912827000        -0.223476329205
    3         14.558628750000         0.584733923090
    4          6.537053097300        -1.047157998785
    5          1.593390068600         1.493007733606
    6          0.830514197100         0.507496057821
    7          8.071947364800         0.033057168198
    8          1.416573749000        -0.532259446508
    9          0.204189333700        -0.099387124536
   10          0.077159007800         0.041235283881
 P 17
    1          9.553141219900        -0.331576063523
    2          7.532768512900         0.587641450079
    3          1.118553956700        -0.520010460094
    4          0.537398552600        -0.156043970465
    5          9.553141219900        -0.015162598454
    6          7.532768512900         0.026872179034
    7          1.118553956700        -0.023779490336
    8          0.537398552600        -0.007135714322
    9          9.553141219900         0.081330943905
   10          7.532768512900        -0.144140181003
   11          1.118553956700         0.127551250565
   12          0.537398552600         0.038275390792
   13          2.135986982800        -0.525146830772
   14          2.135986982800        -0.024014370759
   15          2.135986982800         0.128811130036
   16          0.200274948000         0.091670985154
   17          0.200274948000         0.004192010494
 S 10
    1         55.727520333000         0.002138440361
    2         20.302912827000        -0.103406536545
    3         14.558628750000         0.270566954462
    4          6.537053097300        -0.484538931955
    5          1.593390068600         0.690841662368
    6          0.830514197100         0.234827598236
    7          8.071947364800        -0.011377514818
    8          1.416573749000         0.183191424728
    9          0.204189333700        -1.653283734635
   10          0.077159007800         0.409907346245
 S 10
    1         55.727520333000         0.000793910286
    2         20.302912827000        -0.038390368270
    3         14.558628750000         0.100449791381
    4          6.537053097300        -0.179888319057
    5          1.593390068600         0.256479587464
    6          0.830514197100         0.087181316359
    7          8.071947364800        -0.008832652491
    8          1.416573749000         0.142216135939
    9          0.204189333700        -1.751859882832
   10          0.077159007800         1.987912657258
 P 17
    1          9.553141219900        -0.115554555101
    2          7.532768512900         0.204793571652
    3          1.118553956700        -0.181224111071
    4          0.537398552600        -0.054381463462
    5          9.553141219900        -0.005284179141
    6          7.532768512900         0.009364978460
    7          1.118553956700        -0.008287173679
    8          0.537398552600        -0.002486802832
    9          9.553141219900         0.028343906791
   10          7.532768512900        -0.050232982172
   11          1.118553956700         0.044451725058
   12          0.537398552600         0.013339007971
   13          2.135986982800        -0.290959226442
   14          2.135986982800        -0.013305236422
   15          2.135986982800         0.071368205149
   16          0.200274948000         1.212886063657
   17          0.200274948000         0.055463908215
 P 17
    1          9.553141219900        -0.009098311765
    2          7.532768512900         0.016124641393
    3          1.118553956700        -0.014268874648
    4          0.537398552600        -0.004281782820
    5          9.553141219900        -0.005709596358
    6          7.532768512900         0.010118931527
    7          1.118553956700        -0.008954355140
    8          0.537398552600        -0.002687009659
    9          9.553141219900        -0.038157121602
   10          7.532768512900         0.067624622933
   11          1.118553956700        -0.059841781549
   12          0.537398552600        -0.017957233381
   13          2.135986982800        -0.024787679469
   14          2.135986982800        -0.015791659747
   15          2.135986982800        -0.104000314912
   16          0.200274948000         0.191052172383
   17          0.200274948000         0.121269991278
 P 17
    1          9.553141219900         0.025588279857
    2          7.532768512900        -0.045349274373
    3          1.118553956700         0.040130077666
    4          0.537398552600         0.012042174407
    5          9.553141219900        -0.730595719550
    6          7.532768512900         1.294810980915
    7          1.118553956700        -1.145792649293
    8          0.537398552600        -0.343827765106
    9          9.553141219900        -0.031885384526
   10          7.532768512900         0.056509427731
   11          1.118553956700        -0.050005821595
   12          0.537398552600        -0.015005673052
   13          2.135986982800        -0.037512732836
   14          2.135986982800         1.070825144903
   15          2.135986982800         0.046700151482
   16          0.200274948000        -0.024356357281
   17          0.200274948000         0.695505659683
 S 10
    1         55.727520333000         0.010704017603
    2         20.302912827000        -0.517604048124
    3         14.558628750000         1.354329770601
    4          6.537053097300        -2.425371944872
    5          1.593390068600         3.458025507869
    6          0.830514197100         1.175435514221
    7          8.071947364800         0.229112428119
    8          1.416573749000        -3.688980660657
    9          0.204189333700        -0.594782050022
   10          0.077159007800         0.268801904126
 end
  // -----------------------------------------------
  // The basis set
  // -----------------------------------------------
  BAS[ATNO] = new BFNGauss[NSH];
  // Basis function   1 L = s
  InitBFNGauss(BAS[ATNO][  0]);
  BAS[ATNO][  0].l  = 0;
  BAS[ATNO][  0].ng = 10;
  BAS[ATNO][  0].a[  0] =        55.727520333000;     BAS[ATNO][  0].d[  0] =         0.004621475760;
  BAS[ATNO][  0].a[  1] =        20.302912827000;     BAS[ATNO][  0].d[  1] =        -0.223476329205;
  BAS[ATNO][  0].a[  2] =        14.558628750000;     BAS[ATNO][  0].d[  2] =         0.584733923090;
  BAS[ATNO][  0].a[  3] =         6.537053097300;     BAS[ATNO][  0].d[  3] =        -1.047157998785;
  BAS[ATNO][  0].a[  4] =         1.593390068600;     BAS[ATNO][  0].d[  4] =         1.493007733606;
  BAS[ATNO][  0].a[  5] =         0.830514197100;     BAS[ATNO][  0].d[  5] =         0.507496057821;
  BAS[ATNO][  0].a[  6] =         8.071947364800;     BAS[ATNO][  0].d[  6] =         0.033057168198;
  BAS[ATNO][  0].a[  7] =         1.416573749000;     BAS[ATNO][  0].d[  7] =        -0.532259446508;
  BAS[ATNO][  0].a[  8] =         0.204189333700;     BAS[ATNO][  0].d[  8] =        -0.099387124536;
  BAS[ATNO][  0].a[  9] =         0.077159007800;     BAS[ATNO][  0].d[  9] =         0.041235283881;

FINAL SINGLE POINT ENERGY      -160.969644284692

DIPOLE MOMENT
-------------
                                X             Y             Z
Electronic contribution:     -0.00000       0.00000      -0.00000
Nuclear contribution   :      0.00000       0.00000       0.00000
                        -----------------------------------------
Total Dipole Moment    :     -0.00000       0.00000      -0.00000
                        -----------------------------------------
Magnitude (a.u.)       :      0.00000
Magnitude (Debye)      :      0.00000

Rotational constants in cm-1:     0.000000     0.000000     0.000000
Rotational constants in MHz :     0.000000     0.000000     0.000000

                             ****ORCA TERMINATED NORMALLY****
TOTAL RUN TIME: 0 days 0 hours 0 minutes 1 seconds 38 msec
