                         Program Version 4.2.0 -  RELEASE  -
|  1> #
|  2> # 83_Bi CCSD(T)/Def2-SVP
|  3> #
|  4> ! CCSD(T) Def2-SVP tightscf
|  5>
|  6> *xyz 0 4
|  7>  Bi 0.0 0.0 0.0
|  8> *
|  9>
| 10> %maxcore 5000
| 11>
| 12> %pal
| 13> nprocs 24
| 14> end
| 15>
| 16>
| 17>                          ****END OF INPUT****

CARTESIAN COORDINATES (ANGSTROEM)
---------------------------------
  Bi     0.000000    0.000000    0.000000

 Total Charge           Charge          ....    0
 Multiplicity           Mult            ....    4
 Number of Electrons    NEL             ....   23
 Basis Dimension        Dim             ....   26

ORBITAL ENERGIES
----------------
                 SPIN UP ORBITALS
  NO   OCC          E(Eh)            E(eV)
   0   1.0000      -6.686263      -181.9425
   1   1.0000      -4.260815      -115.9427
   2   1.0000      -4.260815      -115.9427
   3   1.0000      -4.260815      -115.9427
   4   1.0000      -1.315530       -35.7974
   5   1.0000      -1.315530       -35.7974
   6   1.0000      -1.315530       -35.7974
   7   1.0000      -1.315530       -35.7974
   8   1.0000      -1.315530       -35.7974
   9   1.0000      -0.778766       -21.1913
  10   1.0000      -0.318118        -8.6564
  11   1.0000      -0.318118        -8.6564
  12   1.0000      -0.318118        -8.6564
  13   0.0000       0.315080         8.5738
  14   0.0000       0.402116        10.9421
  15   0.0000       0.402116        10.9421
  16   0.0000       0.402116        10.9421
  17   0.0000       0.455654        12.3990

                 SPIN DOWN ORBITALS
  NO   OCC          E(Eh)            E(eV)
   0   1.0000      -6.672682      -181.5729
   1   1.0000      -4.250396      -115.6591
   2   1.0000      -4.250396      -115.6591
   3   1.0000      -4.250396      -115.6591
   4   1.0000      -1.300231       -35.3811
   5   1.0000      -1.300231       -35.3811
   6   1.0000      -1.300231       -35.3811
   7   1.0000      -1.300231       -35.3811
   8   1.0000      -1.300231       -35.3811
   9   1.0000      -0.576919       -15.6988
  10   0.0000       0.041624         1.1327
  11   0.0000       0.041624         1.1327
  12   0.0000       0.041624         1.1327
  13   0.0000       0.369957        10.0670
  14   0.0000       0.468122        12.7383

E(0)                                       ...   -213.591164207
E(0)                                       ...   -213.591164207
E(CORR)                                    ...     -0.072643970
E(TOT)                                     ...   -213.663808177
E(CCSD(T))                                 ...   -213.664964505

MULLIKEN ATOMIC CHARGES AND SPIN DENSITIES
------------------------------------------
   0 Bi:   -0.000000    3.000000
Sum of atomic charges       :   -0.0000000

LOEWDIN ATOMIC CHARGES AND SPIN DENSITIES
-----------------------------------------
   0 Bi:   -0.000000    3.000000

FINAL SINGLE POINT ENERGY      -213.664964505187

DIPOLE MOMENT
-------------
                                X             Y             Z
Electronic contribution:     -0.00000       0.00000       0.00000
Nuclear contribution   :      0.00000       0.00000       0.00000
                        -----------------------------------------
Total Dipole Moment    :     -0.00000       0.00000       0.00000
                        -----------------------------------------
Magnitude (a.u.)       :      0.00000
Magnitude (Debye)      :      0.00000

Rotational constants in cm-1:     0.000000     0.000000     0.000000
Rotational constants in MHz :     0.000000     0.000000     0.000000

                             ****ORCA TERMINATED NORMALLY****
TOTAL RUN TIME: 0 days 0 hours 0 minutes 18 seconds 705 msec
