                         Program Version 4.2.0 -  RELEASE  -
|  1> # input to generate an atomic fitting density for Bi
|  2> # this file is use internally by ORCA
|  3> #
|  4> # atomic ground state (S=4): 1s2 2s2 2p6 3s2 3p6 4s2 3d10 4p6 5s2 4d10 5p6 6s2 4f14 5d10 6p3
|  5> #
|  6> ! RHF AllowRHF def2-SVP def2/J  NoMulliken NoLoewdin NoMayer NoPrintMOs
|  7>
|  8> %output print[p_atomdensfit] 2 end
|  9>
| 10> %scf
| 11>   guess hcore
| 12>   maxiter 1000
| 13>   maxdisk 500000
| 14>   SCFMode Conventional
| 15>   lshift 1.000000
| 16>   hftyp rohf
| 17>   rohf_case sahf
| 18>   rohf_numop   2
| 19>   rohf_norb[1] 3
| 20>   rohf_nel[1]  3
| 21> end
| 22>
| 23> %basis
| 24>   NewECP 83
| 25>     N_core 60
| 26>     lmax f
| 27>     s 4
| 28>       1      13.0430900000    283.2642270000  2
| 29>       2       8.2216820000     62.4719590000  2
| 30>       3       4.2145460000    -13.7133830000  2
| 31>       4       4.1334000000    -18.1943080000  2
| 32>     p 6
| 33>       1      10.4677770000     72.0014990000  2
| 34>       2       9.1189010000    144.0022770000  2
| 35>       3       6.7547910000      5.0079450000  2
| 36>       4       6.2525920000      9.9915500000  2
| 37>       5       4.2145460000    -13.7133830000  2
| 38>       6       4.1334000000    -18.1943080000  2
| 39>     d 6
| 40>       1       8.0814740000     36.3962590000  2
| 41>       2       7.8905950000     54.5976640000  2
| 42>       3       4.9555560000      9.9842940000  2
| 43>       4       4.7045590000     14.9814850000  2
| 44>       5       4.2145460000    -13.7133830000  2
| 45>       6       4.1334000000    -18.1943080000  2
| 46>     f 2
| 47>       1       4.2145460000     13.7133830000  2
| 48>       2       4.1334000000     18.1943080000  2
| 49>   end
| 50>   NewGTO 83
| 51>     s 6
| 52>      1     175.1963210200      0.0008208004
| 53>      2      19.8201477830     -0.1495258070
| 54>      3      14.9601101020      0.3827564059
| 55>      4       6.7065785571     -0.7001236927
| 56>      5       1.7391967524      0.9300829625
| 57>      6       0.9450473059      0.3956399006
| 58>     s 2
| 59>      1       8.4636832909     -0.0670785911
| 60>      2       1.5317838545      1.0396101938
| 61>     s 1
| 62>      1       0.2340539150      1.0000000000
| 63>     s 1
| 64>      1       0.0902688146      1.0000000000
| 65>     p 4
| 66>      1      10.6720462930      0.2217763909
| 67>      2       7.1992185915     -0.5855156447
| 68>      3       1.5359697528      0.8208866281
| 69>      4       0.7220127573      0.3550222911
| 70>     p 1
| 71>      1       2.8508661858      1.0000000000
| 72>     p 1
| 73>      1       0.2376941873      1.0000000000
| 74>     p 1
| 75>      1       0.0787681405      1.0000000000
| 76>   end
| 77>   NewAuxGTO 83
| 78>     S 1
| 79>      1 1310.72 1.0
| 80>     S 1
| 81>      1  655.36 1.0
| 82>     S 1
| 83>      1  327.68 1.0
| 84>     S 1
| 85>      1  163.84 1.0
| 86>     S 1
| 87>      1   81.82 1.0
| 88>     S 1
| 89>      1   40.96 1.0
| 90>     S 1
| 91>      1   20.48 1.0
| 92>     S 1
| 93>      1   10.24 1.0
| 94>     S 1
| 95>      1    5.12 1.0
| 96>     S 1
| 97>      1    2.56 1.0
| 98>     S 1
| 99>      1    1.28 1.0
|100>     S 1
|101>      1    0.64 1.0
|102>     S 1
|103>      1    0.32 1.0
|104>     S 1
|105>      1    0.16 1.0
|106>     S 1
|107>      1    0.08 1.0
|108>     S 1
|109>      1    0.04 1.0
|110>     S 1
|111>      1    0.02 1.0
|112>     S 1
|113>      1    0.01 1.0
|114>   end
|115> end
|116>
|117> * xyz 0 4
|118> 83  0.0 0.0 0.0
|119> *
|120>
|121>
|122>                          ****END OF INPUT****

CARTESIAN COORDINATES (ANGSTROEM)
---------------------------------
  Bi     0.000000    0.000000    0.000000

 Total Charge           Charge          ....    0
 Multiplicity           Mult            ....    4
 Number of Electrons    NEL             ....   23
 Basis Dimension        Dim             ....   16

ORBITAL ENERGIES
----------------

  NO   OCC          E(Eh)            E(eV)
   0   2.0000     -10.146080      -276.0889
   1   2.0000      -7.451760      -202.7727
   2   2.0000      -7.447506      -202.6569
   3   2.0000      -7.396568      -201.2709
   4   2.0000      -2.484646       -67.6107
   5   2.0000      -1.524053       -41.4716
   6   2.0000      -1.515310       -41.2337
   7   2.0000      -1.507889       -41.0318
   8   2.0000      -0.417957       -11.3732
   9   2.0000      -0.173681        -4.7261
  10   1.0000      -0.220914        -6.0114
  11   1.0000      -0.220081        -5.9887
  12   1.0000      16.723930       455.0813
  13   0.0000      17.989072       489.5075
  14   0.0000      17.993360       489.6242
  15   0.0000      50.688790      1379.3121
CleanUpVectors: The p-vectors have cracked symmetry
CleanUpVectors: The p-vectors have cracked symmetry
CleanUpVectors: The p-vectors have cracked symmetry
CleanUpVectors: The p-vectors have cracked symmetry
CleanUpVectors: The p-vectors have cracked symmetry
CleanUpVectors: The p-vectors have cracked symmetry
CleanUpVectors: The p-vectors have cracked symmetry
CleanUpVectors: The p-vectors have cracked symmetry
CleanUpVectors: The p-vectors have cracked symmetry
CleanUpVectors: The p-vectors have cracked symmetry
CleanUpVectors: The p-vectors have cracked symmetry
--------------------------
ATOM BASIS FOR ELEMENT Bi
--------------------------
 NewGTO Bi
 S 10
    1        175.196321020000        -0.001221957320
    2         19.820147783000         0.222604855395
    3         14.960110102000        -0.569824273791
    4          6.706578557100         1.042301235477
    5          1.739196752400        -1.384650499644
    6          0.945047305900        -0.589004430930
    7          8.463683290900        -0.031898334050
    8          1.531783854500         0.494372834902
    9          0.234053915000         0.090298838727
   10          0.090268814600        -0.037634269550
 P 17
    1         10.672046293000         0.000216877518
    2          7.199218591500        -0.000572582047
    3          1.535969752800         0.000802753863
    4          0.722012757300         0.000347180117
    5         10.672046293000        -0.182566151455
    6          7.199218591500         0.481996020569
    7          1.535969752800        -0.675753229933
    8          0.722012757300        -0.292254072239
    9         10.672046293000        -0.013130075954
   10          7.199218591500         0.034664938211
   11          1.535969752800        -0.048599870044
   12          0.722012757300        -0.021018782155
   13          2.850866185800         0.000352537381
   14          2.850866185800        -0.296763783770
   15          2.850866185800        -0.021343118591
   16          0.237694187300        -0.000105481233
   17          0.237694187300         0.088793448984
 S 10
    1        175.196321020000        -0.000604547274
    2         19.820147783000         0.110130817479
    3         14.960110102000        -0.281913047137
    4          6.706578557100         0.515664794996
    5          1.739196752400        -0.685037580056
    6          0.945047305900        -0.291402177019
    7          8.463683290900         0.013898212309
    8          1.531783854500        -0.215399920533
    9          0.234053915000         1.677934467992
   10          0.090268814600        -0.395574764125
 S 10
    1        175.196321020000        -0.000236190530
    2         19.820147783000         0.043027000953
    3         14.960110102000        -0.110140587581
    4          6.706578557100         0.201465040701
    5          1.739196752400        -0.267637281597
    6          0.945047305900        -0.113847895034
    7          8.463683290900         0.011050108803
    8          1.531783854500        -0.171258900434
    9          0.234053915000         1.866111679944
   10          0.090268814600        -2.048107973116
 P 17
    1         10.672046293000         0.000094461309
    2          7.199218591500        -0.000249388918
    3          1.535969752800         0.000349640577
    4          0.722012757300         0.000151214789
    5         10.672046293000        -0.079516944630
    6          7.199218591500         0.209934046229
    7          1.535969752800        -0.294325271908
    8          0.722012757300        -0.127291673155
    9         10.672046293000        -0.005718823091
   10          7.199218591500         0.015098362705
   11          1.535969752800        -0.021167741909
   12          0.722012757300        -0.009154760198
   13          2.850866185800         0.000256875742
   14          2.850866185800        -0.216236408830
   15          2.850866185800        -0.015551625804
   16          0.237694187300        -0.001515922430
   17          0.237694187300         1.276094112496
 P 17
    1         10.672046293000         0.014432503751
    2          7.199218591500        -0.038103500126
    3          1.535969752800         0.053420696817
    4          0.722012757300         0.023103724104
    5         10.672046293000         0.001897987891
    6          7.199218591500        -0.005010910311
    7          1.535969752800         0.007025242290
    8          0.722012757300         0.003038321649
    9         10.672046293000        -0.026152039063
   10          7.199218591500         0.069044445850
   11          1.535969752800        -0.096799569501
   12          0.722012757300        -0.041864495980
   13          2.850866185800         0.042788346785
   14          2.850866185800         0.005593908444
   15          2.850866185800        -0.077073316960
   16          0.237694187300        -0.452925601614
   17          0.237694187300        -0.059454049142
 P 17
    1         10.672046293000        -0.213900604681
    2          7.199218591500         0.564722646731
    3          1.535969752800        -0.791735068880
    4          0.722012757300        -0.342414638607
    5         10.672046293000         0.012356111506
    6          7.199218591500        -0.032621581428
    7          1.535969752800         0.045735105841
    8          0.722012757300         0.019779810638
    9         10.672046293000        -0.175337748616
   10          7.199218591500         0.462912190538
   11          1.535969752800        -0.648997905755
   12          0.722012757300        -0.280682758779
   13          2.850866185800         0.956523706628
   14          2.850866185800        -0.055256755831
   15          2.850866185800         0.784112885369
   16          0.237694187300         0.485887925943
   17          0.237694187300        -0.028043279375
 S 10
    1        175.196321020000        -0.002815847676
    2         19.820147783000         0.512965023036
    3         14.960110102000        -1.313088706954
    4          6.706578557100         2.401852719338
    5          1.739196752400        -3.190753742494
    6          0.945047305900        -1.357286978063
    7          8.463683290900        -0.228763333995
    8          1.531783854500         3.545463464411
    9          0.234053915000         0.655300111476
   10          0.090268814600        -0.296963036019
 end
  // -----------------------------------------------
  // The basis set
  // -----------------------------------------------
  BAS[ATNO] = new BFNGauss[NSH];
  // Basis function   1 L = s
  InitBFNGauss(BAS[ATNO][  0]);
  BAS[ATNO][  0].l  = 0;
  BAS[ATNO][  0].ng = 10;
  BAS[ATNO][  0].a[  0] =       175.196321020000;     BAS[ATNO][  0].d[  0] =         0.001221957320;
  BAS[ATNO][  0].a[  1] =        19.820147783000;     BAS[ATNO][  0].d[  1] =        -0.222604855395;
  BAS[ATNO][  0].a[  2] =        14.960110102000;     BAS[ATNO][  0].d[  2] =         0.569824273791;
  BAS[ATNO][  0].a[  3] =         6.706578557100;     BAS[ATNO][  0].d[  3] =        -1.042301235477;
  BAS[ATNO][  0].a[  4] =         1.739196752400;     BAS[ATNO][  0].d[  4] =         1.384650499644;
  BAS[ATNO][  0].a[  5] =         0.945047305900;     BAS[ATNO][  0].d[  5] =         0.589004430930;
  BAS[ATNO][  0].a[  6] =         8.463683290900;     BAS[ATNO][  0].d[  6] =         0.031898334050;
  BAS[ATNO][  0].a[  7] =         1.531783854500;     BAS[ATNO][  0].d[  7] =        -0.494372834902;
  BAS[ATNO][  0].a[  8] =         0.234053915000;     BAS[ATNO][  0].d[  8] =        -0.090298838727;
  BAS[ATNO][  0].a[  9] =         0.090268814600;     BAS[ATNO][  0].d[  9] =         0.037634269550;

FINAL SINGLE POINT ENERGY      -173.019179526048

DIPOLE MOMENT
-------------
                                X             Y             Z
Electronic contribution:      0.00000      -0.00000       0.00000
Nuclear contribution   :      0.00000       0.00000       0.00000
                        -----------------------------------------
Total Dipole Moment    :      0.00000      -0.00000       0.00000
                        -----------------------------------------
Magnitude (a.u.)       :      0.00000
Magnitude (Debye)      :      0.00000

Rotational constants in cm-1:     0.000000     0.000000     0.000000
Rotational constants in MHz :     0.000000     0.000000     0.000000

                             ****ORCA TERMINATED NORMALLY****
TOTAL RUN TIME: 0 days 0 hours 0 minutes 10 seconds 266 msec
