                         Program Version 4.2.0 -  RELEASE  -
|  1> #
|  2> # 84_Po CCSD(T)/Def2-SVP
|  3> #
|  4> ! CCSD(T) Def2-SVP tightscf
|  5>
|  6> *xyz 0 3
|  7>  Po 0.0 0.0 0.0
|  8> *
|  9>
| 10> %maxcore 5000
| 11>
| 12> %pal
| 13> nprocs 24
| 14> end
| 15>
| 16>
| 17>                          ****END OF INPUT****

CARTESIAN COORDINATES (ANGSTROEM)
---------------------------------
  Po     0.000000    0.000000    0.000000

 Total Charge           Charge          ....    0
 Multiplicity           Mult            ....    3
 Number of Electrons    NEL             ....   24
 Basis Dimension        Dim             ....   26

ORBITAL ENERGIES
----------------
                 SPIN UP ORBITALS
  NO   OCC          E(Eh)            E(eV)
   0   1.0000      -7.245954      -197.1724
   1   1.0000      -4.688769      -127.5879
   2   1.0000      -4.688769      -127.5879
   3   1.0000      -4.667161      -126.9999
   4   1.0000      -1.582343       -43.0577
   5   1.0000      -1.582343       -43.0577
   6   1.0000      -1.562745       -42.5244
   7   1.0000      -1.562745       -42.5244
   8   1.0000      -1.556648       -42.3585
   9   1.0000      -0.880611       -23.9626
  10   1.0000      -0.373494       -10.1633
  11   1.0000      -0.373494       -10.1633
  12   1.0000      -0.324341        -8.8258
  13   0.0000       0.347387         9.4529
  14   0.0000       0.435172        11.8416
  15   0.0000       0.435172        11.8416
  16   0.0000       0.443900        12.0791
  17   0.0000       0.443900        12.0791

                 SPIN DOWN ORBITALS
  NO   OCC          E(Eh)            E(eV)
   0   1.0000      -7.233061      -196.8216
   1   1.0000      -4.673800      -127.1806
   2   1.0000      -4.673800      -127.1806
   3   1.0000      -4.665886      -126.9652
   4   1.0000      -1.564473       -42.5715
   5   1.0000      -1.564473       -42.5715
   6   1.0000      -1.552669       -42.2503
   7   1.0000      -1.552669       -42.2503
   8   1.0000      -1.548851       -42.1464
   9   1.0000      -0.732347       -19.9282
  10   1.0000      -0.286486        -7.7957
  11   0.0000      -0.001437        -0.0391
  12   0.0000      -0.001437        -0.0391
  13   0.0000       0.385486        10.4896
  14   0.0000       0.480464        13.0741
  15   0.0000       0.497490        13.5374

E(0)                                       ...   -236.719465179
E(0)                                       ...   -236.719465179
E(CORR)                                    ...     -0.083753759
E(TOT)                                     ...   -236.803218938
E(CCSD(T))                                 ...   -236.804357080

MULLIKEN ATOMIC CHARGES AND SPIN DENSITIES
------------------------------------------
   0 Po:    0.000000    2.000000
Sum of atomic charges       :    0.0000000

LOEWDIN ATOMIC CHARGES AND SPIN DENSITIES
-----------------------------------------
   0 Po:    0.000000    2.000000

FINAL SINGLE POINT ENERGY      -236.804357080168

DIPOLE MOMENT
-------------
                                X             Y             Z
Electronic contribution:     -0.00000      -0.00000       0.00000
Nuclear contribution   :      0.00000       0.00000       0.00000
                        -----------------------------------------
Total Dipole Moment    :     -0.00000      -0.00000       0.00000
                        -----------------------------------------
Magnitude (a.u.)       :      0.00000
Magnitude (Debye)      :      0.00000

Rotational constants in cm-1:     0.000000     0.000000     0.000000
Rotational constants in MHz :     0.000000     0.000000     0.000000

                             ****ORCA TERMINATED NORMALLY****
TOTAL RUN TIME: 0 days 0 hours 0 minutes 9 seconds 396 msec
