                         Program Version 4.2.0 -  RELEASE  -
|  1> # input to generate an atomic fitting density for Po
|  2> # this file is use internally by ORCA
|  3> #
|  4> # atomic ground state (S=3): 1s2 2s2 2p6 3s2 3p6 4s2 3d10 4p6 5s2 4d10 5p6 6s2 4f14 5d10 6p4
|  5> #
|  6> ! RHF AllowRHF def2-SVP def2/J  NoMulliken NoLoewdin NoMayer NoPrintMOs
|  7>
|  8> %output print[p_atomdensfit] 2 end
|  9>
| 10> %scf
| 11>   guess hcore
| 12>   maxiter 1000
| 13>   maxdisk 500000
| 14>   SCFMode Conventional
| 15>   lshift 1.000000
| 16>   hftyp rohf
| 17>   rohf_case sahf
| 18>   rohf_numop   2
| 19>   rohf_norb[1] 3
| 20>   rohf_nel[1]  4
| 21> end
| 22>
| 23> %basis
| 24>   NewECP 84
| 25>     N_core 60
| 26>     lmax f
| 27>     s 6
| 28>       1      13.2772270000    283.2447060000  2
| 29>       2       8.3995180000     62.3964610000  2
| 30>       3       5.0132700000    -17.4282950000  2
| 31>       4       4.9846400000    -23.3803530000  2
| 32>       5       1.3267600000     -0.1633920000  2
| 33>       6       1.5287580000     -0.3245660000  2
| 34>     p 8
| 35>       1      10.6656820000     71.9917160000  2
| 36>       2       9.2837530000    143.9718710000  2
| 37>       3       6.8727490000      4.9496150000  2
| 38>       4       6.3261500000      9.7404990000  2
| 39>       5       5.0132700000    -17.4282950000  2
| 40>       6       4.9846400000    -23.3803530000  2
| 41>       7       1.3267600000     -0.1633920000  2
| 42>       8       1.5287580000     -0.3245660000  2
| 43>     d 8
| 44>       1       8.2148660000     36.3783830000  2
| 45>       2       8.0086960000     54.5627150000  2
| 46>       3       5.0552270000      9.8894990000  2
| 47>       4       4.7825530000     14.6938770000  2
| 48>       5       5.0132700000    -17.4282950000  2
| 49>       6       4.9846400000    -23.3803530000  2
| 50>       7       1.3267600000     -0.1633920000  2
| 51>       8       1.5287580000     -0.3245660000  2
| 52>     f 4
| 53>       1       5.0132700000     17.4282950000  2
| 54>       2       4.9846400000     23.3803530000  2
| 55>       3       1.3267600000      0.1633920000  2
| 56>       4       1.5287580000      0.3245660000  2
| 57>   end
| 58>   NewGTO 84
| 59>     s 6
| 60>      1     278.1378391600      0.0010144320
| 61>      2      19.6592911050     -0.1627796559
| 62>      3      15.0162296470      0.4291637464
| 63>      4       7.1149978720     -0.7419283188
| 64>      5       1.7879214122      1.0091483533
| 65>      6       0.9402165521      0.3225470840
| 66>     s 2
| 67>      1       8.7584161749     -0.0710671320
| 68>      2       1.6503945866      1.0428313814
| 69>     s 1
| 70>      1       0.2632958213      1.0000000000
| 71>     s 1
| 72>      1       0.1019065430      1.0000000000
| 73>     p 4
| 74>      1      10.4459459730      0.4606145504
| 75>      2       8.0293101888     -0.8774543676
| 76>      3       1.3588798023      0.8607409106
| 77>      4       0.6682918293      0.2840907943
| 78>     p 1
| 79>      1       2.4460635387      1.0000000000
| 80>     p 1
| 81>      1       0.2724294278      1.0000000000
| 82>     p 1
| 83>      1       0.0887960313      1.0000000000
| 84>   end
| 85>   NewAuxGTO 84
| 86>     S 1
| 87>      1 1310.72 1.0
| 88>     S 1
| 89>      1  655.36 1.0
| 90>     S 1
| 91>      1  327.68 1.0
| 92>     S 1
| 93>      1  163.84 1.0
| 94>     S 1
| 95>      1   81.82 1.0
| 96>     S 1
| 97>      1   40.96 1.0
| 98>     S 1
| 99>      1   20.48 1.0
|100>     S 1
|101>      1   10.24 1.0
|102>     S 1
|103>      1    5.12 1.0
|104>     S 1
|105>      1    2.56 1.0
|106>     S 1
|107>      1    1.28 1.0
|108>     S 1
|109>      1    0.64 1.0
|110>     S 1
|111>      1    0.32 1.0
|112>     S 1
|113>      1    0.16 1.0
|114>     S 1
|115>      1    0.08 1.0
|116>     S 1
|117>      1    0.04 1.0
|118>     S 1
|119>      1    0.02 1.0
|120>     S 1
|121>      1    0.01 1.0
|122>   end
|123> end
|124>
|125> * xyz 0 3
|126> 84  0.0 0.0 0.0
|127> *
|128>
|129>
|130>                          ****END OF INPUT****

CARTESIAN COORDINATES (ANGSTROEM)
---------------------------------
  Po     0.000000    0.000000    0.000000

 Total Charge           Charge          ....    0
 Multiplicity           Mult            ....    3
 Number of Electrons    NEL             ....   24
 Basis Dimension        Dim             ....   16

ORBITAL ENERGIES
----------------

  NO   OCC          E(Eh)            E(eV)
   0   2.0000     -10.707735      -291.3723
   1   2.0000      -7.889453      -214.6829
   2   2.0000      -7.886089      -214.5914
   3   2.0000      -7.817787      -212.7328
   4   2.0000      -2.679439       -72.9112
   5   2.0000      -1.675046       -45.5803
   6   2.0000      -1.664299       -45.2879
   7   2.0000      -1.661675       -45.2165
   8   2.0000      -0.463263       -12.6060
   9   2.0000      -0.195474        -5.3191
  10   1.3333      -0.222901        -6.0655
  11   1.3333      -0.220953        -6.0124
  12   1.3333      17.004662       462.7204
  13   0.0000      17.858661       485.9589
  14   0.0000      17.861267       486.0298
  15   0.0000      49.482802      1346.4955
CleanUpVectors: The p-vectors have cracked symmetry
CleanUpVectors: The p-vectors have cracked symmetry
CleanUpVectors: The p-vectors have cracked symmetry
CleanUpVectors: The p-vectors have cracked symmetry
CleanUpVectors: The p-vectors have cracked symmetry
CleanUpVectors: The p-vectors have cracked symmetry
CleanUpVectors: The p-vectors have cracked symmetry
CleanUpVectors: The p-vectors have cracked symmetry
CleanUpVectors: The p-vectors have cracked symmetry
CleanUpVectors: The p-vectors have cracked symmetry
CleanUpVectors: The p-vectors have cracked symmetry
--------------------------
ATOM BASIS FOR ELEMENT Po
--------------------------
 NewGTO Po
 S 10
    1        278.137839160000         0.001475069032
    2         19.659291105000        -0.236695243748
    3         15.016229647000         0.624040006720
    4          7.114997872000        -1.078825872254
    5          1.787921412200         1.467386167769
    6          0.940216552100         0.469010456161
    7          8.758416174900         0.031191079041
    8          1.650394586600        -0.457694508391
    9          0.263295821300        -0.089814455074
   10          0.101906543000         0.035891779716
 P 17
    1         10.445945973000         0.048129884179
    2          8.029310188800        -0.091685720844
    3          1.358879802300         0.089939321932
    4          0.668291829300         0.029684813504
    5         10.445945973000        -0.301095893800
    6          8.029310188800         0.573576989377
    7          1.358879802300        -0.562651686931
    8          0.668291829300        -0.185705318158
    9         10.445945973000         0.004979017067
   10          8.029310188800        -0.009484850768
   11          1.358879802300         0.009304186506
   12          0.668291829300         0.003070881960
   13          2.446063538700         0.077153104756
   14          2.446063538700        -0.482662350684
   15          2.446063538700         0.007981457507
   16          0.272429427800        -0.014098324133
   17          0.272429427800         0.088197750280
 S 10
    1        278.137839160000         0.000766634969
    2         19.659291105000        -0.123017192348
    3         15.016229647000         0.324331187751
    4          7.114997872000        -0.560696225814
    5          1.787921412200         0.762641967753
    6          0.940216552100         0.243757958907
    7          8.758416174900        -0.016919786826
    8          1.650394586600         0.248279115422
    9          0.263295821300        -1.694727820760
   10          0.101906543000         0.378366996921
 S 10
    1        278.137839160000         0.000309128958
    2         19.659291105000        -0.049604020244
    3         15.016229647000         0.130779531672
    4          7.114997872000        -0.226088617412
    5          1.787921412200         0.307518866958
    6          0.940216552100         0.098290121059
    7          8.758416174900        -0.013491341029
    8          1.650394586600         0.197970473919
    9          0.263295821300        -1.932628387579
   10          0.101906543000         2.073290862891
 P 17
    1         10.445945973000         0.020768518580
    2          8.029310188800        -0.039563290654
    3          1.358879802300         0.038809702340
    4          0.668291829300         0.012809289100
    5         10.445945973000        -0.129925840703
    6          8.029310188800         0.247504114427
    7          1.358879802300        -0.242789738926
    8          0.668291829300        -0.080133671968
    9         10.445945973000         0.002148494854
   10          8.029310188800        -0.004092806429
   11          1.358879802300         0.004014848023
   12          0.668291829300         0.001325115781
   13          2.446063538700         0.053210857383
   14          2.446063538700        -0.332881970047
   15          2.446063538700         0.005504641692
   16          0.272429427800        -0.200934713659
   17          0.272429427800         1.257028107112
 P 17
    1         10.445945973000        -0.003568899869
    2          8.029310188800         0.006798627561
    3          1.358879802300        -0.006669129580
    4          0.668291829300        -0.002201171452
    5         10.445945973000        -0.001395305627
    6          8.029310188800         0.002658007689
    7          1.358879802300        -0.002607378848
    8          0.668291829300        -0.000860575254
    9         10.445945973000        -0.049879334453
   10          8.029310188800         0.095018361514
   11          1.358879802300        -0.093208483579
   12          0.668291829300        -0.030763812675
   13          2.446063538700        -0.010106579456
   14          2.446063538700        -0.003919758022
   15          2.446063538700        -0.139343677106
   16          0.272429427800         0.068589945500
   17          0.272429427800         0.026672993527
 P 17
    1         10.445945973000        -0.651961714072
    2          8.029310188800         1.241963921947
    3          1.358879802300        -1.218307409002
    4          0.668291829300        -0.402106970010
    5         10.445945973000        -0.103827720294
    6          8.029310188800         0.197788121480
    7          1.358879802300        -0.194020719567
    8          0.668291829300        -0.064037272603
    9         10.445945973000         0.023446704927
   10          8.029310188800        -0.044665140575
   11          1.358879802300         0.043814373932
   12          0.668291829300         0.014461099895
   13          2.446063538700         1.119755206433
   14          2.446063538700         0.178325933114
   15          2.446063538700        -0.040265412352
   16          0.272429427800         0.792431647339
   17          0.272429427800         0.126197575041
 S 10
    1        278.137839160000         0.003366514738
    2         19.659291105000        -0.540203888180
    3         15.016229647000         1.424231567450
    4          7.114997872000        -2.462178460514
    5          1.787921412200         3.348980320603
    6          0.940216552100         1.070411335708
    7          8.758416174900         0.231747957057
    8          1.650394586600        -3.400644368123
    9          0.263295821300        -0.714722095430
   10          0.101906543000         0.317691778888
 end
  // -----------------------------------------------
  // The basis set
  // -----------------------------------------------
  BAS[ATNO] = new BFNGauss[NSH];
  // Basis function   1 L = s
  InitBFNGauss(BAS[ATNO][  0]);
  BAS[ATNO][  0].l  = 0;
  BAS[ATNO][  0].ng = 10;
  BAS[ATNO][  0].a[  0] =       278.137839160000;     BAS[ATNO][  0].d[  0] =         0.001475069032;
  BAS[ATNO][  0].a[  1] =        19.659291105000;     BAS[ATNO][  0].d[  1] =        -0.236695243748;
  BAS[ATNO][  0].a[  2] =        15.016229647000;     BAS[ATNO][  0].d[  2] =         0.624040006720;
  BAS[ATNO][  0].a[  3] =         7.114997872000;     BAS[ATNO][  0].d[  3] =        -1.078825872254;
  BAS[ATNO][  0].a[  4] =         1.787921412200;     BAS[ATNO][  0].d[  4] =         1.467386167769;
  BAS[ATNO][  0].a[  5] =         0.940216552100;     BAS[ATNO][  0].d[  5] =         0.469010456161;
  BAS[ATNO][  0].a[  6] =         8.758416174900;     BAS[ATNO][  0].d[  6] =         0.031191079041;
  BAS[ATNO][  0].a[  7] =         1.650394586600;     BAS[ATNO][  0].d[  7] =        -0.457694508391;
  BAS[ATNO][  0].a[  8] =         0.263295821300;     BAS[ATNO][  0].d[  8] =        -0.089814455074;
  BAS[ATNO][  0].a[  9] =         0.101906543000;     BAS[ATNO][  0].d[  9] =         0.035891779716;

FINAL SINGLE POINT ENERGY      -186.533493595613

DIPOLE MOMENT
-------------
                                X             Y             Z
Electronic contribution:      0.00000       0.00000       0.00000
Nuclear contribution   :      0.00000       0.00000       0.00000
                        -----------------------------------------
Total Dipole Moment    :      0.00000       0.00000       0.00000
                        -----------------------------------------
Magnitude (a.u.)       :      0.00000
Magnitude (Debye)      :      0.00000

Rotational constants in cm-1:     0.000000     0.000000     0.000000
Rotational constants in MHz :     0.000000     0.000000     0.000000

                             ****ORCA TERMINATED NORMALLY****
TOTAL RUN TIME: 0 days 0 hours 0 minutes 0 seconds 940 msec
