                         Program Version 4.2.0 -  RELEASE  -
|  1> #
|  2> # 85_At CCSD(T)/Def2-SVP
|  3> #
|  4> ! CCSD(T) Def2-SVP tightscf
|  5>
|  6> *xyz 0 2
|  7>  At 0.0 0.0 0.0
|  8> *
|  9>
| 10> %maxcore 5000
| 11>
| 12> %pal
| 13> nprocs 24
| 14> end
| 15>
| 16>
| 17>                          ****END OF INPUT****

CARTESIAN COORDINATES (ANGSTROEM)
---------------------------------
  At     0.000000    0.000000    0.000000

 Total Charge           Charge          ....    0
 Multiplicity           Mult            ....    2
 Number of Electrons    NEL             ....   25
 Basis Dimension        Dim             ....   26

ORBITAL ENERGIES
----------------
                 SPIN UP ORBITALS
  NO   OCC          E(Eh)            E(eV)
   0   1.0000      -7.814651      -212.6475
   1   1.0000      -5.120267      -139.3295
   2   1.0000      -5.095559      -138.6572
   3   1.0000      -5.095559      -138.6572
   4   1.0000      -1.840326       -50.0778
   5   1.0000      -1.832689       -49.8700
   6   1.0000      -1.832689       -49.8700
   7   1.0000      -1.810899       -49.2771
   8   1.0000      -1.810899       -49.2771
   9   1.0000      -0.976618       -26.5751
  10   1.0000      -0.427654       -11.6370
  11   1.0000      -0.375321       -10.2130
  12   1.0000      -0.375321       -10.2130
  13   0.0000       0.383998        10.4491
  14   0.0000       0.472125        12.8472
  15   0.0000       0.480357        13.0712
  16   0.0000       0.480357        13.0712
  17   0.0000       0.484312        13.1788

                 SPIN DOWN ORBITALS
  NO   OCC          E(Eh)            E(eV)
   0   1.0000      -7.806505      -212.4258
   1   1.0000      -5.102751      -138.8529
   2   1.0000      -5.094245      -138.6215
   3   1.0000      -5.094245      -138.6215
   4   1.0000      -1.826829       -49.7105
   5   1.0000      -1.822399       -49.5900
   6   1.0000      -1.822399       -49.5900
   7   1.0000      -1.809422       -49.2369
   8   1.0000      -1.809422       -49.2369
   9   1.0000      -0.896238       -24.3879
  10   1.0000      -0.354851        -9.6560
  11   1.0000      -0.354851        -9.6560
  12   0.0000      -0.047116        -1.2821
  13   0.0000       0.404804        11.0153
  14   0.0000       0.520132        14.1535
  15   0.0000       0.520132        14.1535
  16   0.0000       0.525164        14.2904

E(0)                                       ...   -261.353379630
E(0)                                       ...   -261.353379630
E(CORR)                                    ...     -0.096678890
E(TOT)                                     ...   -261.450058520
E(CCSD(T))                                 ...   -261.451176330

MULLIKEN ATOMIC CHARGES AND SPIN DENSITIES
------------------------------------------
   0 At:    0.000000    1.000000
Sum of atomic charges       :    0.0000000

LOEWDIN ATOMIC CHARGES AND SPIN DENSITIES
-----------------------------------------
   0 At:    0.000000    1.000000

FINAL SINGLE POINT ENERGY      -261.451176330194

DIPOLE MOMENT
-------------
                                X             Y             Z
Electronic contribution:      0.00000       0.00000      -0.00000
Nuclear contribution   :      0.00000       0.00000       0.00000
                        -----------------------------------------
Total Dipole Moment    :      0.00000       0.00000      -0.00000
                        -----------------------------------------
Magnitude (a.u.)       :      0.00000
Magnitude (Debye)      :      0.00000

Rotational constants in cm-1:     0.000000     0.000000     0.000000
Rotational constants in MHz :     0.000000     0.000000     0.000000

                             ****ORCA TERMINATED NORMALLY****
TOTAL RUN TIME: 0 days 0 hours 0 minutes 9 seconds 533 msec
