                         Program Version 4.2.0 -  RELEASE  -
|  1> # input to generate an atomic fitting density for At
|  2> # this file is use internally by ORCA
|  3> #
|  4> # atomic ground state (S=2): 1s2 2s2 2p6 3s2 3p6 4s2 3d10 4p6 5s2 4d10 5p6 6s2 4f14 5d10 6p5
|  5> #
|  6> ! RHF AllowRHF def2-SVP def2/J  NoMulliken NoLoewdin NoMayer NoPrintMOs
|  7>
|  8> %output print[p_atomdensfit] 2 end
|  9>
| 10> %scf
| 11>   guess hcore
| 12>   maxiter 1000
| 13>   maxdisk 500000
| 14>   SCFMode Conventional
| 15>   lshift 1.000000
| 16>   hftyp rohf
| 17>   rohf_case sahf
| 18>   rohf_numop   2
| 19>   rohf_norb[1] 3
| 20>   rohf_nel[1]  5
| 21> end
| 22>
| 23> %basis
| 24>   NewECP 85
| 25>     N_core 60
| 26>     lmax f
| 27>     s 7
| 28>       1      30.2008320000     49.9571580000  2
| 29>       2      13.6123060000    283.2103710000  2
| 30>       3       8.5293400000     62.2810520000  2
| 31>       4       5.8121630000    -19.8701980000  2
| 32>       5       5.7537150000    -26.4164520000  2
| 33>       6       2.5134720000     -0.9949700000  2
| 34>       7       2.5362610000     -1.4907010000  2
| 35>     p 8
| 36>       1      10.8540650000     71.9823710000  2
| 37>       2       9.4682290000    143.9035320000  2
| 38>       3       7.0311140000      4.8717590000  2
| 39>       4       6.1438580000      8.9830590000  2
| 40>       5       5.8121630000    -19.8701980000  2
| 41>       6       5.7537150000    -26.4164520000  2
| 42>       7       2.5134720000     -0.9949700000  2
| 43>       8       2.5362610000     -1.4907010000  2
| 44>     d 8
| 45>       1       8.3135150000     36.3632370000  2
| 46>       2       7.9989650000     54.5489700000  2
| 47>       3       5.1799660000      9.7762850000  2
| 48>       4       4.9422260000     14.2647550000  2
| 49>       5       5.8121630000    -19.8701980000  2
| 50>       6       5.7537150000    -26.4164520000  2
| 51>       7       2.5134720000     -0.9949700000  2
| 52>       8       2.5362610000     -1.4907010000  2
| 53>     f 4
| 54>       1       5.8121630000     19.8701980000  2
| 55>       2       5.7537150000     26.4164520000  2
| 56>       3       2.5134720000      0.9949700000  2
| 57>       4       2.5362610000      1.4907010000  2
| 58>   end
| 59>   NewGTO 85
| 60>     s 6
| 61>      1     303.2337617600      0.0007256980
| 62>      2      20.2894492400     -0.1579631316
| 63>      3      15.3837831260      0.4380495423
| 64>      4       7.4702184232     -0.7637809484
| 65>      5       1.8731608346      1.0461332992
| 66>      6       0.9742684754      0.2920799471
| 67>     s 2
| 68>      1       8.9610112498     -0.0763116126
| 69>      2       1.7804284294      1.0472289785
| 70>     s 1
| 71>      1       0.2926946114      1.0000000000
| 72>     s 1
| 73>      1       0.1139535312      1.0000000000
| 74>     p 4
| 75>      1      10.7220231340      0.5652454070
| 76>      2       8.4823338656     -1.0057130155
| 77>      3       1.3474291294      0.9088822972
| 78>      4       0.6282401147      0.2296645771
| 79>     p 1
| 80>      1       2.4814896839      1.0000000000
| 81>     p 1
| 82>      1       0.3103651847      1.0000000000
| 83>     p 1
| 84>      1       0.1014486204      1.0000000000
| 85>   end
| 86>   NewAuxGTO 85
| 87>     S 1
| 88>      1 1310.72 1.0
| 89>     S 1
| 90>      1  655.36 1.0
| 91>     S 1
| 92>      1  327.68 1.0
| 93>     S 1
| 94>      1  163.84 1.0
| 95>     S 1
| 96>      1   81.82 1.0
| 97>     S 1
| 98>      1   40.96 1.0
| 99>     S 1
|100>      1   20.48 1.0
|101>     S 1
|102>      1   10.24 1.0
|103>     S 1
|104>      1    5.12 1.0
|105>     S 1
|106>      1    2.56 1.0
|107>     S 1
|108>      1    1.28 1.0
|109>     S 1
|110>      1    0.64 1.0
|111>     S 1
|112>      1    0.32 1.0
|113>     S 1
|114>      1    0.16 1.0
|115>     S 1
|116>      1    0.08 1.0
|117>     S 1
|118>      1    0.04 1.0
|119>     S 1
|120>      1    0.02 1.0
|121>     S 1
|122>      1    0.01 1.0
|123>   end
|124> end
|125>
|126> * xyz 0 2
|127> 85  0.0 0.0 0.0
|128> *
|129>
|130>
|131>                          ****END OF INPUT****

CARTESIAN COORDINATES (ANGSTROEM)
---------------------------------
  At     0.000000    0.000000    0.000000

 Total Charge           Charge          ....    0
 Multiplicity           Mult            ....    2
 Number of Electrons    NEL             ....   25
 Basis Dimension        Dim             ....   16

ORBITAL ENERGIES
----------------

  NO   OCC          E(Eh)            E(eV)
   0   2.0000     -11.255547      -306.2790
   1   2.0000      -8.310788      -226.1480
   2   2.0000      -8.310490      -226.1399
   3   2.0000      -8.217021      -223.5965
   4   2.0000      -2.861406       -77.8628
   5   2.0000      -1.813663       -49.3523
   6   2.0000      -1.812993       -49.3341
   7   2.0000      -1.791140       -48.7394
   8   2.0000      -0.503746       -13.7076
   9   2.0000      -0.209796        -5.7088
  10   1.6667      -0.226640        -6.1672
  11   1.6667      -0.226011        -6.1501
  12   1.6667      17.576817       478.2895
  13   0.0000      18.473381       502.6863
  14   0.0000      18.473544       502.6907
  15   0.0000      53.740913      1462.3646
CleanUpVectors: The p-vectors have cracked symmetry
CleanUpVectors: The p-vectors have cracked symmetry
CleanUpVectors: The p-vectors have cracked symmetry
CleanUpVectors: The p-vectors have cracked symmetry
CleanUpVectors: The p-vectors have cracked symmetry
CleanUpVectors: The p-vectors have cracked symmetry
CleanUpVectors: The p-vectors have cracked symmetry
CleanUpVectors: The p-vectors have cracked symmetry
CleanUpVectors: The p-vectors have cracked symmetry
CleanUpVectors: The p-vectors have cracked symmetry
CleanUpVectors: The p-vectors have cracked symmetry
--------------------------
ATOM BASIS FOR ELEMENT At
--------------------------
 NewGTO At
 S 10
    1        303.233761760000        -0.001048383028
    2         20.289449240000         0.228202180850
    3         15.383783126000        -0.632830331108
    4          7.470218423200         1.103399738606
    5          1.873160834600        -1.511301389884
    6          0.974268475400        -0.421954669015
    7          8.961011249800        -0.033022963987
    8          1.780428429400         0.453176176792
    9          0.292694611400         0.083603481840
   10          0.113953531200        -0.032511738941
 P 17
    1         10.722023134000        -0.223402373443
    2          8.482333865600         0.397488722390
    3          1.347429129400        -0.359218243722
    4          0.628240114700        -0.090770506022
    5         10.722023134000        -0.271043064216
    6          8.482333865600         0.482253431991
    7          1.347429129400        -0.435821750684
    8          0.628240114700        -0.110127371135
    9         10.722023134000        -0.010256529195
   10          8.482333865600         0.018248931841
   11          1.347429129400        -0.016491912541
   12          0.628240114700        -0.004167325220
   13          2.481489683900        -0.344993599370
   14          2.481489683900        -0.418563692351
   15          2.481489683900        -0.015838851081
   16          0.310365184700         0.058692210546
   17          0.310365184700         0.071208359816
 S 10
    1        303.233761760000        -0.000571263524
    2         20.289449240000         0.124347283897
    3         15.383783126000        -0.344829013237
    4          7.470218423200         0.601242109244
    5          1.873160834600        -0.823507568078
    6          0.974268475400        -0.229922942998
    7          8.961011249800         0.019029492669
    8          1.780428429400        -0.261142904601
    9          0.292694611400         1.707964230298
   10          0.113953531200        -0.363058794901
 S 10
    1        303.233761760000        -0.000237343127
    2         20.289449240000         0.051662624885
    3         15.383783126000        -0.143266273310
    4          7.470218423200         0.249798343649
    5          1.873160834600        -0.342143079011
    6          0.974268475400        -0.095526193932
    7          8.961011249800         0.015764687332
    8          1.780428429400        -0.216339779077
    9          0.292694611400         1.998479662443
   10          0.113953531200        -2.100863845717
 P 17
    1         10.722023134000        -0.101572380692
    2          8.482333865600         0.180722680826
    3          1.347429129400        -0.163322580869
    4          0.628240114700        -0.041269822926
    5         10.722023134000        -0.123232752102
    6          8.482333865600         0.219261901450
    7          1.347429129400        -0.198151219689
    8          0.628240114700        -0.050070637542
    9         10.722023134000        -0.004663245390
   10          8.482333865600         0.008297080392
   11          1.347429129400        -0.007498231971
   12          0.628240114700        -0.001894720890
   13          2.481489683900        -0.247486759907
   14          2.481489683900        -0.300263460641
   15          2.481489683900        -0.011362256986
   16          0.310365184700         0.808900275289
   17          0.310365184700         0.981398746594
 P 17
    1         10.722023134000         0.022392870928
    2          8.482333865600        -0.039842520554
    3          1.347429129400         0.036006456165
    4          0.628240114700         0.009098436127
    5         10.722023134000        -0.016358404606
    6          8.482333865600         0.029105695015
    7          1.347429129400        -0.026303379333
    8          0.628240114700        -0.006646575150
    9         10.722023134000        -0.055456226172
   10          8.482333865600         0.098670502689
   11          1.347429129400        -0.089170441038
   12          0.628240114700        -0.022532391371
   13          2.481489683900         0.060024594067
   14          2.481489683900        -0.043637456674
   15          2.481489683900        -0.154243874934
   16          0.310365184700        -0.352338175005
   17          0.310365184700         0.256531814850
 P 17
    1         10.722023134000         0.045466824265
    2          8.482333865600        -0.080896857135
    3          1.347429129400         0.073108053904
    4          0.628240114700         0.018473602505
    5         10.722023134000        -0.005825016325
    6          8.482333865600         0.010364161586
    7          1.347429129400        -0.009366293213
    8          0.628240114700        -0.002366759454
    9         10.722023134000        -0.836400503176
   10          8.482333865600         1.488165780382
   11          1.347429129400        -1.344884188871
   12          0.628240114700        -0.339837467885
   13          2.481489683900        -0.057308532004
   14          2.481489683900         0.007397981402
   15          2.481489683900         1.052762617305
   16          0.310365184700        -0.048548654403
   17          0.310365184700         0.006015884875
 S 10
    1        303.233761760000        -0.002356180695
    2         20.289449240000         0.512871306307
    3         15.383783126000        -1.422249854829
    4          7.470218423200         2.479827595024
    5          1.873160834600        -3.396563149244
    6          0.974268475400        -0.948318905164
    7          8.961011249800        -0.241512808807
    8          1.780428429400         3.314295209396
    9          0.292694611400         0.760379745432
   10          0.113953531200        -0.334452748743
 end
  // -----------------------------------------------
  // The basis set
  // -----------------------------------------------
  BAS[ATNO] = new BFNGauss[NSH];
  // Basis function   1 L = s
  InitBFNGauss(BAS[ATNO][  0]);
  BAS[ATNO][  0].l  = 0;
  BAS[ATNO][  0].ng = 10;
  BAS[ATNO][  0].a[  0] =       303.233761760000;     BAS[ATNO][  0].d[  0] =         0.001048383028;
  BAS[ATNO][  0].a[  1] =        20.289449240000;     BAS[ATNO][  0].d[  1] =        -0.228202180850;
  BAS[ATNO][  0].a[  2] =        15.383783126000;     BAS[ATNO][  0].d[  2] =         0.632830331108;
  BAS[ATNO][  0].a[  3] =         7.470218423200;     BAS[ATNO][  0].d[  3] =        -1.103399738606;
  BAS[ATNO][  0].a[  4] =         1.873160834600;     BAS[ATNO][  0].d[  4] =         1.511301389884;
  BAS[ATNO][  0].a[  5] =         0.974268475400;     BAS[ATNO][  0].d[  5] =         0.421954669015;
  BAS[ATNO][  0].a[  6] =         8.961011249800;     BAS[ATNO][  0].d[  6] =         0.033022963987;
  BAS[ATNO][  0].a[  7] =         1.780428429400;     BAS[ATNO][  0].d[  7] =        -0.453176176792;
  BAS[ATNO][  0].a[  8] =         0.292694611400;     BAS[ATNO][  0].d[  8] =        -0.083603481840;
  BAS[ATNO][  0].a[  9] =         0.113953531200;     BAS[ATNO][  0].d[  9] =         0.032511738941;

FINAL SINGLE POINT ENERGY      -200.518855780725

DIPOLE MOMENT
-------------
                                X             Y             Z
Electronic contribution:      0.00000       0.00000       0.00000
Nuclear contribution   :      0.00000       0.00000       0.00000
                        -----------------------------------------
Total Dipole Moment    :      0.00000       0.00000       0.00000
                        -----------------------------------------
Magnitude (a.u.)       :      0.00000
Magnitude (Debye)      :      0.00000

Rotational constants in cm-1:     0.000000     0.000000     0.000000
Rotational constants in MHz :     0.000000     0.000000     0.000000

                             ****ORCA TERMINATED NORMALLY****
TOTAL RUN TIME: 0 days 0 hours 0 minutes 1 seconds 60 msec
