                         Program Version 4.2.0 -  RELEASE  -
|  1> #
|  2> # 85_At CCSD(T)/Def2-SVP
|  3> #
|  4> ! CCSD(T) Def2-SVP tightscf
|  5>
|  6> *xyz 0 1
|  7>  Rn 0.0 0.0 0.0
|  8> *
|  9>
| 10> %maxcore 5000
| 11>
| 12> %pal
| 13> nprocs 24
| 14> end
| 15>
| 16>
| 17>                          ****END OF INPUT****

CARTESIAN COORDINATES (ANGSTROEM)
---------------------------------
  Rn     0.000000    0.000000    0.000000

 Total Charge           Charge          ....    0
 Multiplicity           Mult            ....    1
 Number of Electrons    NEL             ....   26
 Basis Dimension        Dim             ....   50

ORBITAL ENERGIES
----------------

  NO   OCC          E(Eh)            E(eV)
   0   2.0000      -8.326066      -226.5638
   1   2.0000      -5.537068      -150.6713
   2   2.0000      -5.537068      -150.6713
   3   2.0000      -5.537068      -150.6713
   4   2.0000      -2.087303       -56.7984
   5   2.0000      -2.087303       -56.7984
   6   2.0000      -2.087303       -56.7984
   7   2.0000      -2.087303       -56.7984
   8   2.0000      -2.087303       -56.7984
   9   2.0000      -1.070456       -29.1286
  10   2.0000      -0.427297       -11.6273
  11   2.0000      -0.427297       -11.6273
  12   2.0000      -0.427297       -11.6273
  13   0.0000       0.280881         7.6432
  14   0.0000       0.280881         7.6432
  15   0.0000       0.280881         7.6432
  16   0.0000       0.404283        11.0011
  17   0.0000       0.404283        11.0011

E(0)                                       ...   -287.542979084
E(0)                                       ...   -287.542979084
E(CORR)                                    ...     -0.496039582
E(TOT)                                     ...   -288.039018666
E(CCSD(T))                                 ...   -288.047446611

MULLIKEN ATOMIC CHARGES
-----------------------
   0 Rn:    0.000000
Sum of atomic charges:    0.0000000

LOEWDIN ATOMIC CHARGES
----------------------
   0 Rn:    0.000000

FINAL SINGLE POINT ENERGY      -288.047446611049

DIPOLE MOMENT
-------------
                                X             Y             Z
Electronic contribution:      0.00000      -0.00000       0.00000
Nuclear contribution   :      0.00000       0.00000       0.00000
                        -----------------------------------------
Total Dipole Moment    :      0.00000      -0.00000       0.00000
                        -----------------------------------------
Magnitude (a.u.)       :      0.00000
Magnitude (Debye)      :      0.00000

Rotational constants in cm-1:     0.000000     0.000000     0.000000
Rotational constants in MHz :     0.000000     0.000000     0.000000

                             ****ORCA TERMINATED NORMALLY****
TOTAL RUN TIME: 0 days 0 hours 0 minutes 7 seconds 912 msec
