                         Program Version 4.2.0 -  RELEASE  -
|  1> #
|  2> # 01_H CCSD(T)/Def2-QZVPPD
|  3> #
|  4> ! MP2 Def2-QZVPPD tightscf
|  5>
|  6> *xyz 0 2
|  7>  H 0.0 0.0 0.0
|  8> *
|  9>
| 10>
| 11>                          ****END OF INPUT****

CARTESIAN COORDINATES (ANGSTROEM)
---------------------------------
  H      0.000000    0.000000    0.000000

 Total Charge           Charge          ....    0
 Multiplicity           Mult            ....    2
 Number of Electrons    NEL             ....    1
 Basis Dimension        Dim             ....   33

ORBITAL ENERGIES
----------------
                 SPIN UP ORBITALS
  NO   OCC          E(Eh)            E(eV)
   0   1.0000      -0.499983       -13.6052
   1   0.0000       0.170290         4.6338
   2   0.0000       0.170290         4.6338
   3   0.0000       0.170290         4.6338
   4   0.0000       0.218667         5.9502
   5   0.0000       0.739113        20.1123

                 SPIN DOWN ORBITALS
  NO   OCC          E(Eh)            E(eV)

MULLIKEN ATOMIC CHARGES AND SPIN POPULATIONS
--------------------------------------------
   0 H :    0.000000    1.000000
Sum of atomic charges         :    0.0000000

LOEWDIN ATOMIC CHARGES AND SPIN POPULATIONS
-------------------------------------------
   0 H :    0.000000    1.000000

MP2 TOTAL ENERGY:       -0.499983298 Eh
FINAL SINGLE POINT ENERGY        -0.499983297830

DIPOLE MOMENT
-------------
                                X             Y             Z
Electronic contribution:     -0.00000      -0.00000       0.00000
Nuclear contribution   :      0.00000       0.00000       0.00000
                        -----------------------------------------
Total Dipole Moment    :     -0.00000      -0.00000       0.00000
                        -----------------------------------------
Magnitude (a.u.)       :      0.00000
Magnitude (Debye)      :      0.00000

Rotational constants in cm-1:     0.000000     0.000000     0.000000
Rotational constants in MHz :     0.000000     0.000000     0.000000

                             ****ORCA TERMINATED NORMALLY****
TOTAL RUN TIME: 0 days 0 hours 0 minutes 2 seconds 55 msec
