                         Program Version 4.2.0 -  RELEASE  -
|  1> #
|  2> # 05_B CCSD(T)/Def2-QZVPPD
|  3> #
|  4> ! CCSD(T) Def2-QZVPPD tightscf
|  5>
|  6> *xyz 0 2
|  7>  B 0.0 0.0 0.0
|  8> *
|  9>
| 10> %maxcore 5000
| 11>
| 12> %pal
| 13> nprocs 3
| 14> end
| 15>
| 16>
| 17>                          ****END OF INPUT****

CARTESIAN COORDINATES (ANGSTROEM)
---------------------------------
  B      0.000000    0.000000    0.000000

 Total Charge           Charge          ....    0
 Multiplicity           Mult            ....    2
 Number of Electrons    NEL             ....    5
 Basis Dimension        Dim             ....   63

ORBITAL ENERGIES
----------------
                 SPIN UP ORBITALS
  NO   OCC          E(Eh)            E(eV)
   0   1.0000      -7.701240      -209.5614
   1   1.0000      -0.545226       -14.8363
   2   1.0000      -0.318825        -8.6757
   3   0.0000       0.036232         0.9859
   4   0.0000       0.036232         0.9859
   5   0.0000       0.058862         1.6017
   6   0.0000       0.145561         3.9609
   7   0.0000       0.156559         4.2602

                 SPIN DOWN ORBITALS
  NO   OCC          E(Eh)            E(eV)
   0   1.0000      -7.686214      -209.1525
   1   1.0000      -0.446159       -12.1406
   2   0.0000       0.044201         1.2028
   3   0.0000       0.044201         1.2028
   4   0.0000       0.062540         1.7018
   5   0.0000       0.075417         2.0522
   6   0.0000       0.156660         4.2629

E(0)                                       ...    -24.533099220
E(0)                                       ...    -24.533099220
E(CORR)                                    ...     -0.066207043
E(TOT)                                     ...    -24.599306263
E(CCSD(T))                                 ...    -24.600754606

MULLIKEN ATOMIC CHARGES AND SPIN DENSITIES
------------------------------------------
   0 B :    0.000000    1.000000
Sum of atomic charges       :    0.0000000

LOEWDIN ATOMIC CHARGES AND SPIN DENSITIES
-----------------------------------------
   0 B :    0.000000    1.000000

FINAL SINGLE POINT ENERGY       -24.600754605663

DIPOLE MOMENT
-------------
                                X             Y             Z
Electronic contribution:     -0.00000       0.00000      -0.00000
Nuclear contribution   :      0.00000       0.00000       0.00000
                        -----------------------------------------
Total Dipole Moment    :     -0.00000       0.00000      -0.00000
                        -----------------------------------------
Magnitude (a.u.)       :      0.00000
Magnitude (Debye)      :      0.00000

Rotational constants in cm-1:     0.000000     0.000000     0.000000
Rotational constants in MHz :     0.000000     0.000000     0.000000

                             ****ORCA TERMINATED NORMALLY****
TOTAL RUN TIME: 0 days 0 hours 0 minutes 11 seconds 626 msec
