                         Program Version 4.2.0 -  RELEASE  -
|  1> #
|  2> # 06_C CCSD(T)/Def2-QZVPPD
|  3> #
|  4> ! CCSD(T) Def2-QZVPPD tightscf
|  5>
|  6> *xyz 0 3
|  7>  C 0.0 0.0 0.0
|  8> *
|  9>
| 10> %maxcore 5000
| 11>
| 12> %pal
| 13> nprocs 6
| 14> end
| 15>
| 16>
| 17>                          ****END OF INPUT****

CARTESIAN COORDINATES (ANGSTROEM)
---------------------------------
  C      0.000000    0.000000    0.000000

 Total Charge           Charge          ....    0
 Multiplicity           Mult            ....    3
 Number of Electrons    NEL             ....    6
 Basis Dimension        Dim             ....   63

ORBITAL ENERGIES
----------------
                 SPIN UP ORBITALS
  NO   OCC          E(Eh)            E(eV)
   0   1.0000     -11.345490      -308.7265
   1   1.0000      -0.829201       -22.5637
   2   1.0000      -0.439080       -11.9480
   3   1.0000      -0.439080       -11.9480
   4   0.0000       0.024922         0.6782
   5   0.0000       0.085137         2.3167
   6   0.0000       0.212263         5.7760
   7   0.0000       0.212263         5.7760
   8   0.0000       0.236256         6.4289

                 SPIN DOWN ORBITALS
  NO   OCC          E(Eh)            E(eV)
   0   1.0000     -11.300449      -307.5008
   1   1.0000      -0.583420       -15.8757
   2   0.0000       0.052142         1.4189
   3   0.0000       0.094111         2.5609
   4   0.0000       0.094111         2.5609
   5   0.0000       0.094320         2.5666
   6   0.0000       0.240204         6.5363

E(0)                                       ...    -37.693649334
E(0)                                       ...    -37.693649334
E(CORR)                                    ...     -0.090551182
E(TOT)                                     ...    -37.784200516
E(CCSD(T))                                 ...    -37.786561865

MULLIKEN ATOMIC CHARGES AND SPIN DENSITIES
------------------------------------------
   0 C :    0.000000    2.000000
Sum of atomic charges       :    0.0000000

LOEWDIN ATOMIC CHARGES AND SPIN DENSITIES
-----------------------------------------
   0 C :    0.000000    2.000000

FINAL SINGLE POINT ENERGY       -37.786561865311

DIPOLE MOMENT
-------------
                                X             Y             Z
Electronic contribution:      0.00000      -0.00000      -0.00000
Nuclear contribution   :      0.00000       0.00000       0.00000
                        -----------------------------------------
Total Dipole Moment    :      0.00000      -0.00000      -0.00000
                        -----------------------------------------
Magnitude (a.u.)       :      0.00000
Magnitude (Debye)      :      0.00000

Rotational constants in cm-1:     0.000000     0.000000     0.000000
Rotational constants in MHz :     0.000000     0.000000     0.000000

                             ****ORCA TERMINATED NORMALLY****
TOTAL RUN TIME: 0 days 0 hours 0 minutes 20 seconds 27 msec
