                         Program Version 4.2.0 -  RELEASE  -
|  1> #
|  2> # 07_N CCSD(T)/Def2-QZVPPD
|  3> #
|  4> ! CCSD(T) Def2-QZVPPD tightscf
|  5>
|  6> *xyz 0 4
|  7>  N 0.0 0.0 0.0
|  8> *
|  9>
| 10> %maxcore 5000
| 11>
| 12> %pal
| 13> nprocs 10
| 14> end
| 15>
| 16>
| 17>                          ****END OF INPUT****

CARTESIAN COORDINATES (ANGSTROEM)
---------------------------------
  N      0.000000    0.000000    0.000000

 Total Charge           Charge          ....    0
 Multiplicity           Mult            ....    4
 Number of Electrons    NEL             ....    7
 Basis Dimension        Dim             ....   63

ORBITAL ENERGIES
----------------
                 SPIN UP ORBITALS
  NO   OCC          E(Eh)            E(eV)
   0   1.0000     -15.670640      -426.4198
   1   1.0000      -1.162938       -31.6452
   2   1.0000      -0.570917       -15.5354
   3   1.0000      -0.570917       -15.5354
   4   1.0000      -0.570917       -15.5354
   5   0.0000       0.114756         3.1227
   6   0.0000       0.290966         7.9176
   7   0.0000       0.290966         7.9176
   8   0.0000       0.290966         7.9176
   9   0.0000       0.333243         9.0680

                 SPIN DOWN ORBITALS
  NO   OCC          E(Eh)            E(eV)
   0   1.0000     -15.580905      -423.9780
   1   1.0000      -0.725796       -19.7499
   2   0.0000       0.111533         3.0350
   3   0.0000       0.111533         3.0350
   4   0.0000       0.111533         3.0350
   5   0.0000       0.131094         3.5673
   6   0.0000       0.347058         9.4439

E(0)                                       ...    -54.404429329
E(0)                                       ...    -54.404429329
E(CORR)                                    ...     -0.117888729
E(TOT)                                     ...    -54.522318058
E(CCSD(T))                                 ...    -54.525149019

MULLIKEN ATOMIC CHARGES AND SPIN DENSITIES
------------------------------------------
   0 N :    0.000000    3.000000
Sum of atomic charges       :    0.0000000

LOEWDIN ATOMIC CHARGES AND SPIN DENSITIES
-----------------------------------------
   0 N :   -0.000000    3.000000

FINAL SINGLE POINT ENERGY       -54.525149018588

DIPOLE MOMENT
-------------
                                X             Y             Z
Electronic contribution:     -0.00000       0.00000       0.00000
Nuclear contribution   :      0.00000       0.00000       0.00000
                        -----------------------------------------
Total Dipole Moment    :     -0.00000       0.00000       0.00000
                        -----------------------------------------
Magnitude (a.u.)       :      0.00000
Magnitude (Debye)      :      0.00000

Rotational constants in cm-1:     0.000000     0.000000     0.000000
Rotational constants in MHz :     0.000000     0.000000     0.000000

                             ****ORCA TERMINATED NORMALLY****
TOTAL RUN TIME: 0 days 0 hours 0 minutes 14 seconds 778 msec
