                         Program Version 4.2.0 -  RELEASE  -
|  1> #
|  2> # 08_O CCSD(T)/Def2-QZVPPD
|  3> #
|  4> ! CCSD(T) Def2-QZVPPD tightscf
|  5>
|  6> *xyz 0 3
|  7>  O 0.0 0.0 0.0
|  8> *
|  9>
| 10> %maxcore 5000
| 11>
| 12> %pal
| 13> nprocs 15
| 14> end
| 15>
| 16>
| 17>                          ****END OF INPUT****

CARTESIAN COORDINATES (ANGSTROEM)
---------------------------------
  O      0.000000    0.000000    0.000000

 Total Charge           Charge          ....    0
 Multiplicity           Mult            ....    3
 Number of Electrons    NEL             ....    8
 Basis Dimension        Dim             ....   66

ORBITAL ENERGIES
----------------
                 SPIN UP ORBITALS
  NO   OCC          E(Eh)            E(eV)
   0   1.0000     -20.707490      -563.4795
   1   1.0000      -1.418209       -38.5914
   2   1.0000      -0.711010       -19.3476
   3   1.0000      -0.711010       -19.3476
   4   1.0000      -0.611565       -16.6415
   5   0.0000       0.102483         2.7887
   6   0.0000       0.102483         2.7887
   7   0.0000       0.107915         2.9365
   8   0.0000       0.132848         3.6150
   9   0.0000       0.390615        10.6292

                 SPIN DOWN ORBITALS
  NO   OCC          E(Eh)            E(eV)
   0   1.0000     -20.629021      -561.3442
   1   1.0000      -1.075561       -29.2675
   2   1.0000      -0.521542       -14.1919
   3   0.0000       0.057243         1.5577
   4   0.0000       0.057243         1.5577
   5   0.0000       0.109828         2.9886
   6   0.0000       0.143000         3.8912
   7   0.0000       0.157332         4.2812

E(0)                                       ...    -74.818699786
E(0)                                       ...    -74.818699786
E(CORR)                                    ...     -0.171927479
E(TOT)                                     ...    -74.990627265
E(CCSD(T))                                 ...    -74.994378405

MULLIKEN ATOMIC CHARGES AND SPIN DENSITIES
------------------------------------------
   0 O :    0.000000    2.000000
Sum of atomic charges       :    0.0000000

LOEWDIN ATOMIC CHARGES AND SPIN DENSITIES
-----------------------------------------
   0 O :   -0.000000    2.000000

FINAL SINGLE POINT ENERGY       -74.994378404609

DIPOLE MOMENT
-------------
                                X             Y             Z
Electronic contribution:     -0.00000       0.00000      -0.00000
Nuclear contribution   :      0.00000       0.00000       0.00000
                        -----------------------------------------
Total Dipole Moment    :     -0.00000       0.00000      -0.00000
                        -----------------------------------------
Magnitude (a.u.)       :      0.00000
Magnitude (Debye)      :      0.00000

Rotational constants in cm-1:     0.000000     0.000000     0.000000
Rotational constants in MHz :     0.000000     0.000000     0.000000

                             ****ORCA TERMINATED NORMALLY****
TOTAL RUN TIME: 0 days 0 hours 1 minutes 51 seconds 287 msec
