                         Program Version 4.2.0 -  RELEASE  -
|  1> #
|  2> # 09_F CCSD(T)/Def2-QZVPPD
|  3> #
|  4> ! CCSD(T) Def2-QZVPPD tightscf
|  5>
|  6> *xyz 0 2
|  7>  F 0.0 0.0 0.0
|  8> *
|  9>
| 10> %maxcore 5000
| 11>
| 12> %pal
| 13> nprocs 21
| 14> end
| 15>
| 16>
| 17>                          ****END OF INPUT****

CARTESIAN COORDINATES (ANGSTROEM)
---------------------------------
  F      0.000000    0.000000    0.000000

 Total Charge           Charge          ....    0
 Multiplicity           Mult            ....    2
 Number of Electrons    NEL             ....    9
 Basis Dimension        Dim             ....   66

ORBITAL ENERGIES
----------------
                 SPIN UP ORBITALS
  NO   OCC          E(Eh)            E(eV)
   0   1.0000     -26.406653      -718.5615
   1   1.0000      -1.672354       -45.5071
   2   1.0000      -0.845307       -23.0020
   3   1.0000      -0.731562       -19.9068
   4   1.0000      -0.731562       -19.9068
   5   0.0000       0.110722         3.0129
   6   0.0000       0.115631         3.1465
   7   0.0000       0.115631         3.1465
   8   0.0000       0.166881         4.5411
   9   0.0000       0.501478        13.6459

                 SPIN DOWN ORBITALS
  NO   OCC          E(Eh)            E(eV)
   0   1.0000     -26.358662      -717.2557
   1   1.0000      -1.476913       -40.1888
   2   1.0000      -0.679773       -18.4976
   3   1.0000      -0.679773       -18.4976
   4   0.0000       0.032386         0.8813
   5   0.0000       0.116409         3.1676
   6   0.0000       0.116409         3.1676
   7   0.0000       0.146223         3.9789
   8   0.0000       0.172240         4.6869

E(0)                                       ...    -99.415928156
E(0)                                       ...    -99.415928156
E(CORR)                                    ...     -0.230942339
E(TOT)                                     ...    -99.646870495
E(CCSD(T))                                 ...    -99.651604696

MULLIKEN ATOMIC CHARGES AND SPIN DENSITIES
------------------------------------------
   0 F :    0.000000    1.000000
Sum of atomic charges       :    0.0000000

LOEWDIN ATOMIC CHARGES AND SPIN DENSITIES
-----------------------------------------
   0 F :    0.000000    1.000000

FINAL SINGLE POINT ENERGY       -99.651604696209

DIPOLE MOMENT
-------------
                                X             Y             Z
Electronic contribution:      0.00000      -0.00000      -0.00000
Nuclear contribution   :      0.00000       0.00000       0.00000
                        -----------------------------------------
Total Dipole Moment    :      0.00000      -0.00000      -0.00000
                        -----------------------------------------
Magnitude (a.u.)       :      0.00000
Magnitude (Debye)      :      0.00000

Rotational constants in cm-1:     0.000000     0.000000     0.000000
Rotational constants in MHz :     0.000000     0.000000     0.000000

                             ****ORCA TERMINATED NORMALLY****
TOTAL RUN TIME: 0 days 0 hours 0 minutes 11 seconds 931 msec
