                         Program Version 4.2.0 -  RELEASE  -
|  1> #
|  2> # 10_Ne CCSD(T)/Def2-QZVPPD
|  3> #
|  4> ! CCSD(T) Def2-QZVPPD tightscf
|  5>
|  6> *xyz 0 1
|  7>  Ne 0.0 0.0 0.0
|  8> *
|  9>
| 10> %maxcore 5000
| 11>
| 12> %pal
| 13> nprocs 10
| 14> end
| 15>
| 16>
| 17>                          ****END OF INPUT****

CARTESIAN COORDINATES (ANGSTROEM)
---------------------------------
  Ne     0.000000    0.000000    0.000000

 Total Charge           Charge          ....    0
 Multiplicity           Mult            ....    1
 Number of Electrons    NEL             ....   10
 Basis Dimension        Dim             ....   66

ORBITAL ENERGIES
----------------

  NO   OCC          E(Eh)            E(eV)
   0   2.0000     -32.772439      -891.7834
   1   2.0000      -1.930398       -52.5288
   2   2.0000      -0.850435       -23.1415
   3   2.0000      -0.850435       -23.1415
   4   2.0000      -0.850435       -23.1415
   5   0.0000       0.114637         3.1194
   6   0.0000       0.114637         3.1194
   7   0.0000       0.114637         3.1194
   8   0.0000       0.203709         5.5432
   9   0.0000       0.569098        15.4859

E(0)                                       ...   -128.546856849
E(0)                                       ...   -128.546856849
E(CORR)                                    ...     -0.291393501
E(TOT)                                     ...   -128.838250350
E(CCSD(T))                                 ...   -128.843751571

MULLIKEN ATOMIC CHARGES
-----------------------
   0 Ne:   -0.000000
Sum of atomic charges:   -0.0000000

LOEWDIN ATOMIC CHARGES
----------------------
   0 Ne:   -0.000000

FINAL SINGLE POINT ENERGY      -128.843751570722

DIPOLE MOMENT
-------------
                                X             Y             Z
Electronic contribution:      0.00000      -0.00000      -0.00000
Nuclear contribution   :      0.00000       0.00000       0.00000
                        -----------------------------------------
Total Dipole Moment    :      0.00000      -0.00000      -0.00000
                        -----------------------------------------
Magnitude (a.u.)       :      0.00000
Magnitude (Debye)      :      0.00000

Rotational constants in cm-1:     0.000000     0.000000     0.000000
Rotational constants in MHz :     0.000000     0.000000     0.000000

                             ****ORCA TERMINATED NORMALLY****
TOTAL RUN TIME: 0 days 0 hours 0 minutes 5 seconds 360 msec
