                         Program Version 4.2.0 -  RELEASE  -
|  1> #
|  2> # 11_Na CCSD(T)/Def2-QZVPPD
|  3> #
|  4> ! HF Def2-QZVPPD tightscf
|  5>
|  6> *xyz 0 2
|  7>  Na 0.0 0.0 0.0
|  8> *
|  9>
| 10> %maxcore 5000
| 11>
| 12> %pal
| 13> nprocs 24
| 14> end
| 15>
| 16> %method
| 17> NewNCore Na 10 end
| 18> end
| 19>
| 20>
| 21>                          ****END OF INPUT****

CARTESIAN COORDINATES (ANGSTROEM)
---------------------------------
  Na     0.000000    0.000000    0.000000

 Total Charge           Charge          ....    0
 Multiplicity           Mult            ....    2
 Number of Electrons    NEL             ....   11
 Basis Dimension        Dim             ....   58

ORBITAL ENERGIES
----------------
                 SPIN UP ORBITALS
  NO   OCC          E(Eh)            E(eV)
   0   1.0000     -40.479851     -1101.5127
   1   1.0000      -2.800453       -76.2042
   2   1.0000      -1.518997       -41.3340
   3   1.0000      -1.518997       -41.3340
   4   1.0000      -1.518997       -41.3340
   5   1.0000      -0.182187        -4.9576
   6   0.0000       0.019042         0.5182
   7   0.0000       0.019042         0.5182
   8   0.0000       0.019042         0.5182
   9   0.0000       0.039823         1.0836
  10   0.0000       0.088120         2.3979

                 SPIN DOWN ORBITALS
  NO   OCC          E(Eh)            E(eV)
   0   1.0000     -40.477152     -1101.4393
   1   1.0000      -2.793473       -76.0143
   2   1.0000      -1.517135       -41.2833
   3   1.0000      -1.517135       -41.2833
   4   1.0000      -1.517135       -41.2833
   5   0.0000       0.009430         0.2566
   6   0.0000       0.032096         0.8734
   7   0.0000       0.032096         0.8734
   8   0.0000       0.032096         0.8734
   9   0.0000       0.064422         1.7530

MULLIKEN ATOMIC CHARGES AND SPIN POPULATIONS
--------------------------------------------
   0 Na:    0.000000    1.000000
Sum of atomic charges         :    0.0000000

LOEWDIN ATOMIC CHARGES AND SPIN POPULATIONS
-------------------------------------------
   0 Na:    0.000000    1.000000

FINAL SINGLE POINT ENERGY      -161.858797931184

DIPOLE MOMENT
-------------
                                X             Y             Z
Electronic contribution:     -0.00000      -0.00000       0.00000
Nuclear contribution   :      0.00000       0.00000       0.00000
                        -----------------------------------------
Total Dipole Moment    :     -0.00000      -0.00000       0.00000
                        -----------------------------------------
Magnitude (a.u.)       :      0.00000
Magnitude (Debye)      :      0.00000

Rotational constants in cm-1:     0.000000     0.000000     0.000000
Rotational constants in MHz :     0.000000     0.000000     0.000000

                             ****ORCA TERMINATED NORMALLY****
TOTAL RUN TIME: 0 days 0 hours 0 minutes 9 seconds 763 msec
