                         Program Version 4.2.0 -  RELEASE  -
|  1> #
|  2> # 12_Mg CCSD(T)/Def2-QZVPPD
|  3> #
|  4> ! CCSD(T) Def2-QZVPPD tightscf
|  5>
|  6> *xyz 0 1
|  7>  Mg 0.0 0.0 0.0
|  8> *
|  9>
| 10> %maxcore 5000
| 11>
| 12> %pal
| 13> nprocs 1
| 14> end
| 15>
| 16> %method
| 17> NewNCore Mg 10 end
| 18> end
| 19>
| 20>
| 21>                          ****END OF INPUT****

CARTESIAN COORDINATES (ANGSTROEM)
---------------------------------
  Mg     0.000000    0.000000    0.000000

 Total Charge           Charge          ....    0
 Multiplicity           Mult            ....    1
 Number of Electrons    NEL             ....   12
 Basis Dimension        Dim             ....   63

ORBITAL ENERGIES
----------------

  NO   OCC          E(Eh)            E(eV)
   0   2.0000     -49.031544     -1334.2161
   1   2.0000      -3.767655      -102.5231
   2   2.0000      -2.282162       -62.1008
   3   2.0000      -2.282162       -62.1008
   4   2.0000      -2.282162       -62.1008
   5   2.0000      -0.253051        -6.8859
   6   0.0000       0.033707         0.9172
   7   0.0000       0.033707         0.9172
   8   0.0000       0.033707         0.9172
   9   0.0000       0.086832         2.3628
  10   0.0000       0.154202         4.1960

E(0)                                       ...   -199.614487887
E(0)                                       ...   -199.614487887
E(CORR)                                    ...     -0.033798422
E(TOT)                                     ...   -199.648286309
E(CCSD(T))                                 ...   -199.648286309

MULLIKEN ATOMIC CHARGES
-----------------------
   0 Mg:   -0.000000
Sum of atomic charges:   -0.0000000

LOEWDIN ATOMIC CHARGES
----------------------
   0 Mg:    0.000000

FINAL SINGLE POINT ENERGY      -199.648286309084

DIPOLE MOMENT
-------------
                                X             Y             Z
Electronic contribution:      0.00000      -0.00000       0.00000
Nuclear contribution   :      0.00000       0.00000       0.00000
                        -----------------------------------------
Total Dipole Moment    :      0.00000      -0.00000       0.00000
                        -----------------------------------------
Magnitude (a.u.)       :      0.00000
Magnitude (Debye)      :      0.00000

Rotational constants in cm-1:     0.000000     0.000000     0.000000
Rotational constants in MHz :     0.000000     0.000000     0.000000

                             ****ORCA TERMINATED NORMALLY****
TOTAL RUN TIME: 0 days 0 hours 0 minutes 6 seconds 281 msec
