                         Program Version 4.2.0 -  RELEASE  -
|  1> #
|  2> # 13_Al CCSD(T)/Def2-QZVPPD
|  3> #
|  4> ! CCSD(T) Def2-QZVPPD tightscf
|  5>
|  6> *xyz 0 2
|  7>  Al 0.0 0.0 0.0
|  8> *
|  9>
| 10> %maxcore 5000
| 11>
| 12> %pal
| 13> nprocs 3
| 14> end
| 15>
| 16>
| 17>                          ****END OF INPUT****

CARTESIAN COORDINATES (ANGSTROEM)
---------------------------------
  Al     0.000000    0.000000    0.000000

 Total Charge           Charge          ....    0
 Multiplicity           Mult            ....    2
 Number of Electrons    NEL             ....   13
 Basis Dimension        Dim             ....   76

ORBITAL ENERGIES
----------------
                 SPIN UP ORBITALS
  NO   OCC          E(Eh)            E(eV)
   0   1.0000     -58.500912     -1591.8908
   1   1.0000      -4.910698      -133.6269
   2   1.0000      -3.225171       -87.7614
   3   1.0000      -3.217865       -87.5625
   4   1.0000      -3.217865       -87.5625
   5   1.0000      -0.425507       -11.5786
   6   1.0000      -0.218507        -5.9459
   7   0.0000       0.016939         0.4609
   8   0.0000       0.016939         0.4609
   9   0.0000       0.039834         1.0840
  10   0.0000       0.088817         2.4168
  11   0.0000       0.088817         2.4168

                 SPIN DOWN ORBITALS
  NO   OCC          E(Eh)            E(eV)
   0   1.0000     -58.497847     -1591.8073
   1   1.0000      -4.907265      -133.5335
   2   1.0000      -3.216299       -87.5199
   3   1.0000      -3.216299       -87.5199
   4   1.0000      -3.206949       -87.2655
   5   1.0000      -0.363345        -9.8871
   6   0.0000       0.023211         0.6316
   7   0.0000       0.023211         0.6316
   8   0.0000       0.042870         1.1666
   9   0.0000       0.053451         1.4545
  10   0.0000       0.089314         2.4304

E(0)                                       ...   -241.880675522
E(0)                                       ...   -241.880675522
E(CORR)                                    ...     -0.052263438
E(TOT)                                     ...   -241.932938960
E(CCSD(T))                                 ...   -241.934228036

MULLIKEN ATOMIC CHARGES AND SPIN DENSITIES
------------------------------------------
   0 Al:   -0.000000    1.000000
Sum of atomic charges       :   -0.0000000

LOEWDIN ATOMIC CHARGES AND SPIN DENSITIES
-----------------------------------------
   0 Al:   -0.000000    1.000000

FINAL SINGLE POINT ENERGY      -241.934228035909

DIPOLE MOMENT
-------------
                                X             Y             Z
Electronic contribution:      0.00000      -0.00000      -0.00000
Nuclear contribution   :      0.00000       0.00000       0.00000
                        -----------------------------------------
Total Dipole Moment    :      0.00000      -0.00000      -0.00000
                        -----------------------------------------
Magnitude (a.u.)       :      0.00000
Magnitude (Debye)      :      0.00000

Rotational constants in cm-1:     0.000000     0.000000     0.000000
Rotational constants in MHz :     0.000000     0.000000     0.000000

                             ****ORCA TERMINATED NORMALLY****
TOTAL RUN TIME: 0 days 0 hours 0 minutes 30 seconds 380 msec
