                         Program Version 4.2.0 -  RELEASE  -
|  1> #
|  2> # 14_Si CCSD(T)/Def2-QZVPPD
|  3> #
|  4> ! CCSD(T) Def2-QZVPPD tightscf
|  5>
|  6> *xyz 0 3
|  7>  Si 0.0 0.0 0.0
|  8> *
|  9>
| 10> %maxcore 5000
| 11>
| 12> %pal
| 13> nprocs 6
| 14> end
| 15>
| 16>
| 17>                          ****END OF INPUT****

CARTESIAN COORDINATES (ANGSTROEM)
---------------------------------
  Si     0.000000    0.000000    0.000000

 Total Charge           Charge          ....    0
 Multiplicity           Mult            ....    3
 Number of Electrons    NEL             ....   14
 Basis Dimension        Dim             ....   76

ORBITAL ENERGIES
----------------
                 SPIN UP ORBITALS
  NO   OCC          E(Eh)            E(eV)
   0   1.0000     -68.816224     -1872.5846
   1   1.0000      -6.160599      -167.6384
   2   1.0000      -4.268912      -116.1630
   3   1.0000      -4.268912      -116.1630
   4   1.0000      -4.258129      -115.8696
   5   1.0000      -0.619828       -16.8664
   6   1.0000      -0.301376        -8.2009
   7   1.0000      -0.301376        -8.2009
   8   0.0000      -0.006542        -0.1780
   9   0.0000       0.055063         1.4983
  10   0.0000       0.122071         3.3217
  11   0.0000       0.122071         3.3217
  12   0.0000       0.122499         3.3334

                 SPIN DOWN ORBITALS
  NO   OCC          E(Eh)            E(eV)
   0   1.0000     -68.805969     -1872.3056
   1   1.0000      -6.149667      -167.3409
   2   1.0000      -4.253044      -115.7312
   3   1.0000      -4.239790      -115.3706
   4   1.0000      -4.239790      -115.3706
   5   1.0000      -0.462723       -12.5913
   6   0.0000       0.011705         0.3185
   7   0.0000       0.051785         1.4092
   8   0.0000       0.051785         1.4092
   9   0.0000       0.062386         1.6976
  10   0.0000       0.128928         3.5083

E(0)                                       ...   -288.858732657
E(0)                                       ...   -288.858732657
E(CORR)                                    ...     -0.076802806
E(TOT)                                     ...   -288.935535462
E(CCSD(T))                                 ...   -288.938403829

MULLIKEN ATOMIC CHARGES AND SPIN DENSITIES
------------------------------------------
   0 Si:   -0.000000    2.000000
Sum of atomic charges       :   -0.0000000

LOEWDIN ATOMIC CHARGES AND SPIN DENSITIES
-----------------------------------------
   0 Si:   -0.000000    2.000000

FINAL SINGLE POINT ENERGY      -288.938403829111

DIPOLE MOMENT
-------------
                                X             Y             Z
Electronic contribution:      0.00000       0.00000       0.00000
Nuclear contribution   :      0.00000       0.00000       0.00000
                        -----------------------------------------
Total Dipole Moment    :      0.00000       0.00000       0.00000
                        -----------------------------------------
Magnitude (a.u.)       :      0.00000
Magnitude (Debye)      :      0.00000

Rotational constants in cm-1:     0.000000     0.000000     0.000000
Rotational constants in MHz :     0.000000     0.000000     0.000000

                             ****ORCA TERMINATED NORMALLY****
TOTAL RUN TIME: 0 days 0 hours 0 minutes 12 seconds 177 msec
