                         Program Version 4.2.0 -  RELEASE  -
|  1> #
|  2> # 15_P CCSD(T)/Def2-QZVPPD
|  3> #
|  4> ! CCSD(T) Def2-QZVPPD tightscf
|  5>
|  6> *xyz 0 4
|  7>  P 0.0 0.0 0.0
|  8> *
|  9>
| 10> %maxcore 5000
| 11>
| 12> %pal
| 13> nprocs 10
| 14> end
| 15>
| 16>
| 17>                          ****END OF INPUT****

CARTESIAN COORDINATES (ANGSTROEM)
---------------------------------
  P      0.000000    0.000000    0.000000

 Total Charge           Charge          ....    0
 Multiplicity           Mult            ....    4
 Number of Electrons    NEL             ....   15
 Basis Dimension        Dim             ....   76

ORBITAL ENERGIES
----------------
                 SPIN UP ORBITALS
  NO   OCC          E(Eh)            E(eV)
   0   1.0000     -79.980133     -2176.3701
   1   1.0000      -7.521654      -204.6746
   2   1.0000      -5.421342      -147.5222
   3   1.0000      -5.421342      -147.5222
   4   1.0000      -5.421342      -147.5222
   5   1.0000      -0.836174       -22.7534
   6   1.0000      -0.392062       -10.6686
   7   1.0000      -0.392062       -10.6686
   8   1.0000      -0.392062       -10.6686
   9   0.0000       0.071993         1.9590
  10   0.0000       0.159022         4.3272
  11   0.0000       0.159022         4.3272
  12   0.0000       0.159022         4.3272
  13   0.0000       0.159022         4.3272

                 SPIN DOWN ORBITALS
  NO   OCC          E(Eh)            E(eV)
   0   1.0000     -79.958520     -2175.7819
   1   1.0000      -7.499778      -204.0793
   2   1.0000      -5.379892      -146.3943
   3   1.0000      -5.379892      -146.3943
   4   1.0000      -5.379892      -146.3943
   5   1.0000      -0.556131       -15.1331
   6   0.0000       0.044110         1.2003
   7   0.0000       0.044110         1.2003
   8   0.0000       0.044110         1.2003
   9   0.0000       0.084643         2.3033
  10   0.0000       0.179876         4.8947

E(0)                                       ...   -340.719050123
E(0)                                       ...   -340.719050123
E(CORR)                                    ...     -0.105412846
E(TOT)                                     ...   -340.824462969
E(CCSD(T))                                 ...   -340.829077931

MULLIKEN ATOMIC CHARGES AND SPIN DENSITIES
------------------------------------------
   0 P :   -0.000000    3.000000
Sum of atomic charges       :   -0.0000000

LOEWDIN ATOMIC CHARGES AND SPIN DENSITIES
-----------------------------------------
   0 P :   -0.000000    3.000000

FINAL SINGLE POINT ENERGY      -340.829077930535

DIPOLE MOMENT
-------------
                                X             Y             Z
Electronic contribution:      0.00000       0.00000       0.00000
Nuclear contribution   :      0.00000       0.00000       0.00000
                        -----------------------------------------
Total Dipole Moment    :      0.00000       0.00000       0.00000
                        -----------------------------------------
Magnitude (a.u.)       :      0.00000
Magnitude (Debye)      :      0.00000

Rotational constants in cm-1:     0.000000     0.000000     0.000000
Rotational constants in MHz :     0.000000     0.000000     0.000000

                             ****ORCA TERMINATED NORMALLY****
TOTAL RUN TIME: 0 days 0 hours 0 minutes 11 seconds 213 msec
