                         Program Version 4.2.0 -  RELEASE  -
|  1> #
|  2> # 16_S CCSD(T)/Def2-QZVPPD
|  3> #
|  4> ! CCSD(T) Def2-QZVPPD tightscf
|  5>
|  6> *xyz 0 3
|  7>  S 0.0 0.0 0.0
|  8> *
|  9>
| 10> %maxcore 5000
| 11>
| 12> %pal
| 13> nprocs 15
| 14> end
| 15>
| 16>
| 17>                          ****END OF INPUT****

CARTESIAN COORDINATES (ANGSTROEM)
---------------------------------
  S      0.000000    0.000000    0.000000

 Total Charge           Charge          ....    0
 Multiplicity           Mult            ....    3
 Number of Electrons    NEL             ....   16
 Basis Dimension        Dim             ....   79

ORBITAL ENERGIES
----------------
                 SPIN UP ORBITALS
  NO   OCC          E(Eh)            E(eV)
   0   1.0000     -92.013016     -2503.8014
   1   1.0000      -9.012680      -245.2475
   2   1.0000      -6.705824      -182.4748
   3   1.0000      -6.705824      -182.4748
   4   1.0000      -6.685346      -181.9175
   5   1.0000      -0.989801       -26.9339
   6   1.0000      -0.486958       -13.2508
   7   1.0000      -0.486958       -13.2508
   8   1.0000      -0.415494       -11.3062
   9   0.0000       0.063142         1.7182
  10   0.0000       0.063142         1.7182
  11   0.0000       0.068277         1.8579
  12   0.0000       0.081514         2.2181
  13   0.0000       0.181420         4.9367

                 SPIN DOWN ORBITALS
  NO   OCC          E(Eh)            E(eV)
   0   1.0000     -91.994083     -2503.2863
   1   1.0000      -8.994079      -244.7413
   2   1.0000      -6.675240      -181.6425
   3   1.0000      -6.659048      -181.2019
   4   1.0000      -6.659048      -181.2019
   5   1.0000      -0.773861       -21.0578
   6   1.0000      -0.379400       -10.3240
   7   0.0000       0.000660         0.0180
   8   0.0000       0.000660         0.0180
   9   0.0000       0.069123         1.8809
  10   0.0000       0.081264         2.2113
  11   0.0000       0.081264         2.2113

E(0)                                       ...   -397.513028024
E(0)                                       ...   -397.513028024
E(CORR)                                    ...     -0.149882635
E(TOT)                                     ...   -397.662910659
E(CCSD(T))                                 ...   -397.668790629

MULLIKEN ATOMIC CHARGES AND SPIN DENSITIES
------------------------------------------
   0 S :    0.000000    2.000000
Sum of atomic charges       :    0.0000000

LOEWDIN ATOMIC CHARGES AND SPIN DENSITIES
-----------------------------------------
   0 S :    0.000000    2.000000

FINAL SINGLE POINT ENERGY      -397.668790628871

DIPOLE MOMENT
-------------
                                X             Y             Z
Electronic contribution:     -0.00000       0.00000      -0.00000
Nuclear contribution   :      0.00000       0.00000       0.00000
                        -----------------------------------------
Total Dipole Moment    :     -0.00000       0.00000      -0.00000
                        -----------------------------------------
Magnitude (a.u.)       :      0.00000
Magnitude (Debye)      :      0.00000

Rotational constants in cm-1:     0.000000     0.000000     0.000000
Rotational constants in MHz :     0.000000     0.000000     0.000000

                             ****ORCA TERMINATED NORMALLY****
TOTAL RUN TIME: 0 days 0 hours 0 minutes 13 seconds 588 msec
