                         Program Version 4.2.0 -  RELEASE  -
|  1> #
|  2> # 17_Cl CCSD(T)/Def2-QZVPPD
|  3> #
|  4> ! CCSD(T) Def2-QZVPPD tightscf
|  5>
|  6> *xyz 0 2
|  7>  Cl 0.0 0.0 0.0
|  8> *
|  9>
| 10> %maxcore 5000
| 11>
| 12> %pal
| 13> nprocs 21
| 14> end
| 15>
| 16>
| 17>                          ****END OF INPUT****

CARTESIAN COORDINATES (ANGSTROEM)
---------------------------------
  Cl     0.000000    0.000000    0.000000

 Total Charge           Charge          ....    0
 Multiplicity           Mult            ....    2
 Number of Electrons    NEL             ....   17
 Basis Dimension        Dim             ....   79

ORBITAL ENERGIES
----------------
                 SPIN UP ORBITALS
  NO   OCC          E(Eh)            E(eV)
   0   1.0000    -104.889465     -2854.1874
   1   1.0000     -10.612218      -288.7731
   2   1.0000      -8.097961      -220.3567
   3   1.0000      -8.073675      -219.6959
   4   1.0000      -8.073675      -219.6959
   5   1.0000      -1.136075       -30.9142
   6   1.0000      -0.581779       -15.8310
   7   1.0000      -0.502474       -13.6730
   8   1.0000      -0.502474       -13.6730
   9   0.0000       0.065806         1.7907
  10   0.0000       0.070403         1.9158
  11   0.0000       0.070403         1.9158
  12   0.0000       0.101390         2.7590
  13   0.0000       0.226326         6.1587

                 SPIN DOWN ORBITALS
  NO   OCC          E(Eh)            E(eV)
   0   1.0000    -104.877813     -2853.8704
   1   1.0000     -10.601031      -288.4687
   2   1.0000      -8.067625      -219.5312
   3   1.0000      -8.067625      -219.5312
   4   1.0000      -8.048316      -219.0058
   5   1.0000      -1.014383       -27.6028
   6   1.0000      -0.480823       -13.0838
   7   1.0000      -0.480823       -13.0838
   8   0.0000      -0.041002        -1.1157
   9   0.0000       0.070760         1.9255
  10   0.0000       0.070760         1.9255
  11   0.0000       0.077027         2.0960
  12   0.0000       0.105648         2.8748

E(0)                                       ...   -459.489558620
E(0)                                       ...   -459.489558620
E(CORR)                                    ...     -0.198575920
E(TOT)                                     ...   -459.688134539
E(CCSD(T))                                 ...   -459.695481793

MULLIKEN ATOMIC CHARGES AND SPIN DENSITIES
------------------------------------------
   0 Cl:    0.000000    1.000000
Sum of atomic charges       :    0.0000000

LOEWDIN ATOMIC CHARGES AND SPIN DENSITIES
-----------------------------------------
   0 Cl:    0.000000    1.000000

FINAL SINGLE POINT ENERGY      -459.695481792689

DIPOLE MOMENT
-------------
                                X             Y             Z
Electronic contribution:     -0.00000      -0.00000      -0.00000
Nuclear contribution   :      0.00000       0.00000       0.00000
                        -----------------------------------------
Total Dipole Moment    :     -0.00000      -0.00000      -0.00000
                        -----------------------------------------
Magnitude (a.u.)       :      0.00000
Magnitude (Debye)      :      0.00000

Rotational constants in cm-1:     0.000000     0.000000     0.000000
Rotational constants in MHz :     0.000000     0.000000     0.000000

                             ****ORCA TERMINATED NORMALLY****
TOTAL RUN TIME: 0 days 0 hours 0 minutes 14 seconds 425 msec
