                         Program Version 4.2.0 -  RELEASE  -
|  1> #
|  2> # 18_Ar CCSD(T)/Def2-QZVPPD
|  3> #
|  4> ! CCSD(T) Def2-QZVPPD tightscf
|  5>
|  6> *xyz 0 1
|  7>  Ar 0.0 0.0 0.0
|  8> *
|  9>
| 10> %maxcore 5000
| 11>
| 12> %pal
| 13> nprocs 10
| 14> end
| 15>
| 16>
| 17>                          ****END OF INPUT****

CARTESIAN COORDINATES (ANGSTROEM)
---------------------------------
  Ar     0.000000    0.000000    0.000000

 Total Charge           Charge          ....    0
 Multiplicity           Mult            ....    1
 Number of Electrons    NEL             ....   18
 Basis Dimension        Dim             ....   79

ORBITAL ENERGIES
----------------

  NO   OCC          E(Eh)            E(eV)
   0   2.0000    -118.610461     -3227.5547
   1   2.0000     -12.322223      -335.3047
   2   2.0000      -9.571532      -260.4546
   3   2.0000      -9.571532      -260.4546
   4   2.0000      -9.571532      -260.4546
   5   2.0000      -1.277380       -34.7593
   6   2.0000      -0.591041       -16.0830
   7   2.0000      -0.591041       -16.0830
   8   2.0000      -0.591041       -16.0830
   9   0.0000       0.076304         2.0763
  10   0.0000       0.076304         2.0763
  11   0.0000       0.076304         2.0763
  12   0.0000       0.123840         3.3699
  13   0.0000       0.283955         7.7268

E(0)                                       ...   -526.817203404
E(0)                                       ...   -526.817203404
E(CORR)                                    ...     -0.249669540
E(TOT)                                     ...   -527.066872944
E(CCSD(T))                                 ...   -527.075689872

MULLIKEN ATOMIC CHARGES
-----------------------
   0 Ar:   -0.000000
Sum of atomic charges:   -0.0000000

LOEWDIN ATOMIC CHARGES
----------------------
   0 Ar:    0.000000

FINAL SINGLE POINT ENERGY      -527.075689872208

DIPOLE MOMENT
-------------
                                X             Y             Z
Electronic contribution:      0.00000      -0.00000       0.00000
Nuclear contribution   :      0.00000       0.00000       0.00000
                        -----------------------------------------
Total Dipole Moment    :      0.00000      -0.00000       0.00000
                        -----------------------------------------
Magnitude (a.u.)       :      0.00000
Magnitude (Debye)      :      0.00000

Rotational constants in cm-1:     0.000000     0.000000     0.000000
Rotational constants in MHz :     0.000000     0.000000     0.000000

                             ****ORCA TERMINATED NORMALLY****
TOTAL RUN TIME: 0 days 0 hours 0 minutes 6 seconds 282 msec
