                         Program Version 4.2.0 -  RELEASE  -
|  1> #
|  2> # 21_Sc CCSD(T)/Def2-QZVPPD
|  3> #
|  4> ! CCSD(T) Def2-QZVPPD tightscf
|  5>
|  6> *xyz 0 2
|  7>  Sc 0.0 0.0 0.0
|  8> *
|  9>
| 10> %maxcore 5000
| 11>
| 12> %pal
| 13> nprocs 24
| 14> end
| 15>
| 16>
| 17>                          ****END OF INPUT****

CARTESIAN COORDINATES (ANGSTROEM)
---------------------------------
  Sc     0.000000    0.000000    0.000000

 Total Charge           Charge          ....    0
 Multiplicity           Mult            ....    2
 Number of Electrons    NEL             ....   21
 Basis Dimension        Dim             ....   93

ORBITAL ENERGIES
----------------
                 SPIN UP ORBITALS
  NO   OCC          E(Eh)            E(eV)
   0   1.0000    -165.899244     -4514.3479
   1   1.0000     -19.085723      -519.3489
   2   1.0000     -15.674917      -426.5362
   3   1.0000     -15.672779      -426.4780
   4   1.0000     -15.672766      -426.4776
   5   1.0000      -2.593346       -70.5685
   6   1.0000      -1.621199       -44.1151
   7   1.0000      -1.620946       -44.1082
   8   1.0000      -1.581936       -43.0467
   9   1.0000      -0.352959        -9.6045
  10   1.0000      -0.216080        -5.8798
  11   0.0000       0.020177         0.5490
  12   0.0000       0.020185         0.5493
  13   0.0000       0.020714         0.5636
  14   0.0000       0.077105         2.0981
  15   0.0000       0.084878         2.3096

                 SPIN DOWN ORBITALS
  NO   OCC          E(Eh)            E(eV)
   0   1.0000    -165.899380     -4514.3516
   1   1.0000     -19.073031      -519.0036
   2   1.0000     -15.672543      -426.4716
   3   1.0000     -15.654720      -425.9866
   4   1.0000     -15.654602      -425.9834
   5   1.0000      -2.538812       -69.0846
   6   1.0000      -1.575260       -42.8650
   7   1.0000      -1.521303       -41.3968
   8   1.0000      -1.520949       -41.3871
   9   1.0000      -0.204528        -5.5655
  10   0.0000       0.017392         0.4733
  11   0.0000       0.023526         0.6402
  12   0.0000       0.023553         0.6409
  13   0.0000       0.078756         2.1431
  14   0.0000       0.088344         2.4040

E(0)                                       ...   -759.740132432
E(0)                                       ...   -759.740132432
E(CORR)                                    ...     -0.302006191
E(TOT)                                     ...   -760.042138623
E(CCSD(T))                                 ...   -760.052563845

MULLIKEN ATOMIC CHARGES AND SPIN DENSITIES
------------------------------------------
   0 Sc:    0.000000    1.000000
Sum of atomic charges       :    0.0000000

LOEWDIN ATOMIC CHARGES AND SPIN DENSITIES
-----------------------------------------
   0 Sc:    0.000000    1.000000

FINAL SINGLE POINT ENERGY      -760.052563844665

DIPOLE MOMENT
-------------
                                X             Y             Z
Electronic contribution:      0.00000      -0.00000      -0.00000
Nuclear contribution   :      0.00000       0.00000       0.00000
                        -----------------------------------------
Total Dipole Moment    :      0.00000      -0.00000      -0.00000
                        -----------------------------------------
Magnitude (a.u.)       :      0.00000
Magnitude (Debye)      :      0.00000

Rotational constants in cm-1:     0.000000     0.000000     0.000000
Rotational constants in MHz :     0.000000     0.000000     0.000000

                             ****ORCA TERMINATED NORMALLY****
TOTAL RUN TIME: 0 days 0 hours 0 minutes 29 seconds 674 msec
