                         Program Version 4.2.0 -  RELEASE  -
|  1> #
|  2> # 25_Mn CCSD(T)/Def2-QZVPPD
|  3> #
|  4> ! CCSD(T) Def2-QZVPPD tightscf
|  5>
|  6> *xyz 0 6
|  7>  Mn 0.0 0.0 0.0
|  8> *
|  9>
| 10> %maxcore 5000
| 11>
| 12> %pal
| 13> nprocs 24
| 14> end
| 15>
| 16>
| 17>                          ****END OF INPUT****

CARTESIAN COORDINATES (ANGSTROEM)
---------------------------------
  Mn     0.000000    0.000000    0.000000

 Total Charge           Charge          ....    0
 Multiplicity           Mult            ....    6
 Number of Electrons    NEL             ....   25
 Basis Dimension        Dim             ....  100

ORBITAL ENERGIES
----------------
                 SPIN UP ORBITALS
  NO   OCC          E(Eh)            E(eV)
   0   1.0000    -240.361903     -6540.5799
   1   1.0000     -28.963358      -788.1330
   2   1.0000     -24.686247      -671.7469
   3   1.0000     -24.660802      -671.0545
   4   1.0000     -24.660802      -671.0545
   5   1.0000      -3.783750      -102.9611
   6   1.0000      -2.534061       -68.9553
   7   1.0000      -2.471359       -67.2491
   8   1.0000      -2.471359       -67.2491
   9   1.0000      -0.447427       -12.1751
  10   1.0000      -0.440010       -11.9733
  11   1.0000      -0.440010       -11.9733
  12   1.0000      -0.415834       -11.3154
  13   1.0000      -0.371762       -10.1162
  14   1.0000      -0.226502        -6.1634
  15   0.0000       0.026893         0.7318
  16   0.0000       0.031631         0.8607
  17   0.0000       0.031631         0.8607
  18   0.0000       0.092591         2.5195
  19   0.0000       0.136215         3.7066

                 SPIN DOWN ORBITALS
  NO   OCC          E(Eh)            E(eV)
   0   1.0000    -240.359347     -6540.5103
   1   1.0000     -28.863829      -785.4247
   2   1.0000     -24.572039      -668.6392
   3   1.0000     -24.572039      -668.6392
   4   1.0000     -24.572006      -668.6383
   5   1.0000      -3.467567       -94.3573
   6   1.0000      -2.128721       -57.9254
   7   1.0000      -2.128720       -57.9254
   8   1.0000      -2.081891       -56.6511
   9   1.0000      -0.227662        -6.1950
  10   0.0000       0.019387         0.5276
  11   0.0000       0.051685         1.4064
  12   0.0000       0.052426         1.4266
  13   0.0000       0.052426         1.4266
  14   0.0000       0.140035         3.8105

E(0)                                       ...  -1149.752393191
E(0)                                       ...  -1149.752393191
E(CORR)                                    ...     -0.499267842
E(TOT)                                     ...  -1150.251661033
E(CCSD(T))                                 ...  -1150.268637024

MULLIKEN ATOMIC CHARGES AND SPIN DENSITIES
------------------------------------------
   0 Mn:   -0.000000    5.000000
Sum of atomic charges       :   -0.0000000

LOEWDIN ATOMIC CHARGES AND SPIN DENSITIES
-----------------------------------------
   0 Mn:   -0.000000    5.000000

FINAL SINGLE POINT ENERGY     -1150.268637024457

DIPOLE MOMENT
-------------
                                X             Y             Z
Electronic contribution:     -0.00000      -0.00000      -0.00000
Nuclear contribution   :      0.00000       0.00000       0.00000
                        -----------------------------------------
Total Dipole Moment    :     -0.00000      -0.00000      -0.00000
                        -----------------------------------------
Magnitude (a.u.)       :      0.00000
Magnitude (Debye)      :      0.00000

Rotational constants in cm-1:     0.000000     0.000000     0.000000
Rotational constants in MHz :     0.000000     0.000000     0.000000

                             ****ORCA TERMINATED NORMALLY****
TOTAL RUN TIME: 0 days 0 hours 0 minutes 32 seconds 565 msec
