                         Program Version 4.2.0 -  RELEASE  -
|  1> #
|  2> # 27_Co CCSD(T)/Def2-QZVPPD
|  3> #
|  4> ! CCSD(T) Def2-QZVPPD tightscf
|  5>
|  6> *xyz 0 4
|  7>  Co 0.0 0.0 0.0
|  8> *
|  9>
| 10> %maxcore 5000
| 11>
| 12> %pal
| 13> nprocs 24
| 14> end
| 15>
| 16>
| 17>                          ****END OF INPUT****

CARTESIAN COORDINATES (ANGSTROEM)
---------------------------------
  Co     0.000000    0.000000    0.000000

 Total Charge           Charge          ....    0
 Multiplicity           Mult            ....    4
 Number of Electrons    NEL             ....   27
 Basis Dimension        Dim             ....  100

ORBITAL ENERGIES
----------------
                 SPIN UP ORBITALS
  NO   OCC          E(Eh)            E(eV)
   0   1.0000    -282.856909     -7696.9278
   1   1.0000     -34.665985      -943.3094
   2   1.0000     -29.920842      -814.1875
   3   1.0000     -29.920842      -814.1875
   4   1.0000     -29.920842      -814.1875
   5   1.0000      -4.393094      -119.5422
   6   1.0000      -2.907471       -79.1163
   7   1.0000      -2.907471       -79.1163
   8   1.0000      -2.907471       -79.1163
   9   1.0000      -0.498930       -13.5766
  10   1.0000      -0.498930       -13.5766
  11   1.0000      -0.446200       -12.1417
  12   1.0000      -0.446200       -12.1417
  13   1.0000      -0.446200       -12.1417
  14   1.0000      -0.232390        -6.3237
  15   0.0000       0.035499         0.9660
  16   0.0000       0.035499         0.9660
  17   0.0000       0.035499         0.9660
  18   0.0000       0.107645         2.9292
  19   0.0000       0.164440         4.4746

                 SPIN DOWN ORBITALS
  NO   OCC          E(Eh)            E(eV)
   0   1.0000    -282.854148     -7696.8527
   1   1.0000     -34.601401      -941.5520
   2   1.0000     -29.859053      -812.5061
   3   1.0000     -29.859053      -812.5061
   4   1.0000     -29.859053      -812.5061
   5   1.0000      -4.210367      -114.5699
   6   1.0000      -2.692934       -73.2785
   7   1.0000      -2.692934       -73.2785
   8   1.0000      -2.692934       -73.2785
   9   1.0000      -0.379353       -10.3227
  10   1.0000      -0.379353       -10.3227
  11   1.0000      -0.379353       -10.3227
  12   0.0000       0.017288         0.4704
  13   0.0000       0.058045         1.5795
  14   0.0000       0.058045         1.5795
  15   0.0000       0.058045         1.5795
  16   0.0000       0.150680         4.1002

E(0)                                       ...  -1381.366210217
E(0)                                       ...  -1381.366210217
E(CORR)                                    ...     -0.627659523
E(TOT)                                     ...  -1381.993869740
E(CCSD(T))                                 ...  -1382.016036968

MULLIKEN ATOMIC CHARGES AND SPIN DENSITIES
------------------------------------------
   0 Co:    0.000000    3.000000
Sum of atomic charges       :    0.0000000

LOEWDIN ATOMIC CHARGES AND SPIN DENSITIES
-----------------------------------------
   0 Co:   -0.000000    3.000000

FINAL SINGLE POINT ENERGY     -1382.016036967673

DIPOLE MOMENT
-------------
                                X             Y             Z
Electronic contribution:      0.00000      -0.00000       0.00000
Nuclear contribution   :      0.00000       0.00000       0.00000
                        -----------------------------------------
Total Dipole Moment    :      0.00000      -0.00000       0.00000
                        -----------------------------------------
Magnitude (a.u.)       :      0.00000
Magnitude (Debye)      :      0.00000

Rotational constants in cm-1:     0.000000     0.000000     0.000000
Rotational constants in MHz :     0.000000     0.000000     0.000000

                             ****ORCA TERMINATED NORMALLY****
TOTAL RUN TIME: 0 days 0 hours 0 minutes 34 seconds 462 msec
