                         Program Version 4.2.0 -  RELEASE  -
|  1> #
|  2> # 28_Ni CCSD(T)/Def2-QZVPPD
|  3> #
|  4> ! CCSD(T) Def2-QZVPPD tightscf slowconv
|  5>
|  6> *xyz 0 3
|  7>  Ni 0.0 0.0 0.0
|  8> *
|  9>
| 10> %maxcore 5000
| 11>
| 12> %pal
| 13> nprocs 24
| 14> end
| 15>
| 16>
| 17>                          ****END OF INPUT****

CARTESIAN COORDINATES (ANGSTROEM)
---------------------------------
  Ni     0.000000    0.000000    0.000000

 Total Charge           Charge          ....    0
 Multiplicity           Mult            ....    3
 Number of Electrons    NEL             ....   28
 Basis Dimension        Dim             ....  100

ORBITAL ENERGIES
----------------
                 SPIN UP ORBITALS
  NO   OCC          E(Eh)            E(eV)
   0   1.0000    -305.399234     -8310.3357
   1   1.0000     -37.690151     -1025.6011
   2   1.0000     -32.729451      -890.6136
   3   1.0000     -32.729448      -890.6136
   4   1.0000     -32.692931      -889.6199
   5   1.0000      -4.705480      -128.0426
   6   1.0000      -3.144536       -85.5672
   7   1.0000      -3.144531       -85.5670
   8   1.0000      -3.065881       -83.4269
   9   1.0000      -0.549067       -14.9409
  10   1.0000      -0.492331       -13.3970
  11   1.0000      -0.463035       -12.5998
  12   1.0000      -0.463032       -12.5998
  13   1.0000      -0.452451       -12.3118
  14   1.0000      -0.236268        -6.4292
  15   0.0000       0.036478         0.9926
  16   0.0000       0.036478         0.9926
  17   0.0000       0.040010         1.0887
  18   0.0000       0.114491         3.1155
  19   0.0000       0.170284         4.6337

                 SPIN DOWN ORBITALS
  NO   OCC          E(Eh)            E(eV)
   0   1.0000    -305.396772     -8310.2687
   1   1.0000     -37.653566     -1024.6056
   2   1.0000     -32.684565      -889.3922
   3   1.0000     -32.682645      -889.3400
   4   1.0000     -32.682645      -889.3400
   5   1.0000      -4.605592      -125.3245
   6   1.0000      -3.041618       -82.7666
   7   1.0000      -2.986018       -81.2537
   8   1.0000      -2.986014       -81.2536
   9   1.0000      -0.476406       -12.9637
  10   1.0000      -0.419843       -11.4245
  11   1.0000      -0.419839       -11.4244
  12   1.0000      -0.400896       -10.9089
  13   0.0000       0.016070         0.4373
  14   0.0000       0.059782         1.6267
  15   0.0000       0.059782         1.6267
  16   0.0000       0.060657         1.6505
  17   0.0000       0.155531         4.2322

E(0)                                       ...  -1506.829396166
E(0)                                       ...  -1506.829396166
E(CORR)                                    ...     -0.698996710
E(TOT)                                     ...  -1507.528392876
E(CCSD(T))                                 ...  -1507.553444852

MULLIKEN ATOMIC CHARGES AND SPIN DENSITIES
------------------------------------------
   0 Ni:   -0.000000    2.000000
Sum of atomic charges       :   -0.0000000

LOEWDIN ATOMIC CHARGES AND SPIN DENSITIES
-----------------------------------------
   0 Ni:   -0.000000    2.000000

FINAL SINGLE POINT ENERGY     -1507.553444852192

DIPOLE MOMENT
-------------
                                X             Y             Z
Electronic contribution:      0.00000       0.00000      -0.00000
Nuclear contribution   :      0.00000       0.00000       0.00000
                        -----------------------------------------
Total Dipole Moment    :      0.00000       0.00000      -0.00000
                        -----------------------------------------
Magnitude (a.u.)       :      0.00000
Magnitude (Debye)      :      0.00000

Rotational constants in cm-1:     0.000000     0.000000     0.000000
Rotational constants in MHz :     0.000000     0.000000     0.000000

                             ****ORCA TERMINATED NORMALLY****
TOTAL RUN TIME: 0 days 0 hours 0 minutes 44 seconds 118 msec
