                         Program Version 4.2.0 -  RELEASE  -
|  1> #
|  2> # 29_Cu CCSD(T)/Def2-QZVPPD
|  3> #
|  4> ! CCSD(T) Def2-QZVPPD tightscf
|  5>
|  6> *xyz 0 2
|  7>  Cu 0.0 0.0 0.0
|  8> *
|  9>
| 10> %maxcore 5000
| 11>
| 12> %pal
| 13> nprocs 24
| 14> end
| 15>
| 16>
| 17>                          ****END OF INPUT****

CARTESIAN COORDINATES (ANGSTROEM)
---------------------------------
  Cu     0.000000    0.000000    0.000000

 Total Charge           Charge          ....    0
 Multiplicity           Mult            ....    2
 Number of Electrons    NEL             ....   29
 Basis Dimension        Dim             ....  100

ORBITAL ENERGIES
----------------
                 SPIN UP ORBITALS
  NO   OCC          E(Eh)            E(eV)
   0   1.0000    -328.794679     -8946.9581
   1   1.0000     -40.819190     -1110.7466
   2   1.0000     -35.617253      -969.1947
   3   1.0000     -35.617253      -969.1947
   4   1.0000     -35.617253      -969.1947
   5   1.0000      -5.012292      -136.3914
   6   1.0000      -3.322091       -90.3987
   7   1.0000      -3.322091       -90.3987
   8   1.0000      -3.322091       -90.3987
   9   1.0000      -0.488988       -13.3060
  10   1.0000      -0.488988       -13.3060
  11   1.0000      -0.488988       -13.3060
  12   1.0000      -0.488988       -13.3060
  13   1.0000      -0.488988       -13.3060
  14   1.0000      -0.239622        -6.5204
  15   0.0000       0.038601         1.0504
  16   0.0000       0.038601         1.0504
  17   0.0000       0.038601         1.0504
  18   0.0000       0.097031         2.6403
  19   0.0000       0.172861         4.7038

                 SPIN DOWN ORBITALS
  NO   OCC          E(Eh)            E(eV)
   0   1.0000    -328.792867     -8946.9088
   1   1.0000     -40.819908     -1110.7662
   2   1.0000     -35.619898      -969.2667
   3   1.0000     -35.619898      -969.2667
   4   1.0000     -35.619898      -969.2667
   5   1.0000      -5.011574      -136.3719
   6   1.0000      -3.327357       -90.5420
   7   1.0000      -3.327357       -90.5420
   8   1.0000      -3.327357       -90.5420
   9   1.0000      -0.493226       -13.4213
  10   1.0000      -0.493226       -13.4213
  11   1.0000      -0.493226       -13.4213
  12   1.0000      -0.493226       -13.4213
  13   1.0000      -0.493226       -13.4213
  14   0.0000       0.012658         0.3444
  15   0.0000       0.060231         1.6390
  16   0.0000       0.060231         1.6390
  17   0.0000       0.060231         1.6390
  18   0.0000       0.134174         3.6511

E(0)                                       ...  -1638.963228442
E(0)                                       ...  -1638.963228442
E(CORR)                                    ...     -0.749281385
E(TOT)                                     ...  -1639.712509827
E(CCSD(T))                                 ...  -1639.738672294

MULLIKEN ATOMIC CHARGES AND SPIN DENSITIES
------------------------------------------
   0 Cu:   -0.000000    1.000000
Sum of atomic charges       :   -0.0000000

LOEWDIN ATOMIC CHARGES AND SPIN DENSITIES
-----------------------------------------
   0 Cu:   -0.000000    1.000000

FINAL SINGLE POINT ENERGY     -1639.738672293759

DIPOLE MOMENT
-------------
                                X             Y             Z
Electronic contribution:      0.00000       0.00000      -0.00000
Nuclear contribution   :      0.00000       0.00000       0.00000
                        -----------------------------------------
Total Dipole Moment    :      0.00000       0.00000      -0.00000
                        -----------------------------------------
Magnitude (a.u.)       :      0.00000
Magnitude (Debye)      :      0.00000

Rotational constants in cm-1:     0.000000     0.000000     0.000000
Rotational constants in MHz :     0.000000     0.000000     0.000000

                             ****ORCA TERMINATED NORMALLY****
TOTAL RUN TIME: 0 days 0 hours 0 minutes 33 seconds 771 msec
