                         Program Version 4.2.0 -  RELEASE  -
|  1> #
|  2> # 30_Zn CCSD(T)/Def2-QZVPPD
|  3> #
|  4> ! CCSD(T) Def2-QZVPPD tightscf
|  5>
|  6> *xyz 0 1
|  7>  Zn 0.0 0.0 0.0
|  8> *
|  9>
| 10> %maxcore 5000
| 11>
| 12> %pal
| 13> nprocs 24
| 14> end
| 15>
| 16>
| 17>                          ****END OF INPUT****

CARTESIAN COORDINATES (ANGSTROEM)
---------------------------------
  Zn     0.000000    0.000000    0.000000

 Total Charge           Charge          ....    0
 Multiplicity           Mult            ....    1
 Number of Electrons    NEL             ....   30
 Basis Dimension        Dim             ....  100

ORBITAL ENERGIES
----------------

  NO   OCC          E(Eh)            E(eV)
   0   2.0000    -353.305722     -9613.9375
   1   2.0000     -44.362398     -1207.1622
   2   2.0000     -38.925586     -1059.2190
   3   2.0000     -38.925586     -1059.2190
   4   2.0000     -38.925586     -1059.2190
   5   2.0000      -5.637784      -153.4119
   6   2.0000      -3.839336      -104.4736
   7   2.0000      -3.839336      -104.4736
   8   2.0000      -3.839336      -104.4736
   9   2.0000      -0.782517       -21.2934
  10   2.0000      -0.782517       -21.2934
  11   2.0000      -0.782517       -21.2934
  12   2.0000      -0.782517       -21.2934
  13   2.0000      -0.782517       -21.2934
  14   2.0000      -0.292515        -7.9597
  15   0.0000       0.043350         1.1796
  16   0.0000       0.043350         1.1796
  17   0.0000       0.043350         1.1796
  18   0.0000       0.112774         3.0687
  19   0.0000       0.189413         5.1542

E(0)                                       ...  -1777.847171412
E(0)                                       ...  -1777.847171412
E(CORR)                                    ...     -0.781745994
E(TOT)                                     ...  -1778.628917406
E(CCSD(T))                                 ...  -1778.651501284

MULLIKEN ATOMIC CHARGES
-----------------------
   0 Zn:   -0.000000
Sum of atomic charges:   -0.0000000

LOEWDIN ATOMIC CHARGES
----------------------
   0 Zn:   -0.000000

FINAL SINGLE POINT ENERGY     -1778.651501283734

DIPOLE MOMENT
-------------
                                X             Y             Z
Electronic contribution:      0.00000       0.00000      -0.00000
Nuclear contribution   :      0.00000       0.00000       0.00000
                        -----------------------------------------
Total Dipole Moment    :      0.00000       0.00000      -0.00000
                        -----------------------------------------
Magnitude (a.u.)       :      0.00000
Magnitude (Debye)      :      0.00000

Rotational constants in cm-1:     0.000000     0.000000     0.000000
Rotational constants in MHz :     0.000000     0.000000     0.000000

                             ****ORCA TERMINATED NORMALLY****
TOTAL RUN TIME: 0 days 0 hours 0 minutes 15 seconds 460 msec
