                         Program Version 4.2.0 -  RELEASE  -
|  1> #
|  2> # 31_Ga CCSD(T)/Def2-QZVPPD
|  3> #
|  4> ! CCSD(T) Def2-QZVPPD tightscf
|  5>
|  6> *xyz 0 2
|  7>  Ga 0.0 0.0 0.0
|  8> *
|  9>
| 10> %maxcore 5000
| 11>
| 12> %pal
| 13> nprocs 24
| 14> end
| 15>
| 16>
| 17>                          ****END OF INPUT****

CARTESIAN COORDINATES (ANGSTROEM)
---------------------------------
  Ga     0.000000    0.000000    0.000000

 Total Charge           Charge          ....    0
 Multiplicity           Mult            ....    2
 Number of Electrons    NEL             ....   31
 Basis Dimension        Dim             ....   95

ORBITAL ENERGIES
----------------
                 SPIN UP ORBITALS
  NO   OCC          E(Eh)            E(eV)
   0   1.0000    -378.817867    -10308.1582
   1   1.0000     -48.167145     -1310.6947
   2   1.0000     -42.493454     -1156.3057
   3   1.0000     -42.493166     -1156.2978
   4   1.0000     -42.493166     -1156.2978
   5   1.0000      -6.393876      -173.9862
   6   1.0000      -4.482336      -121.9706
   7   1.0000      -4.482188      -121.9665
   8   1.0000      -4.482188      -121.9665
   9   1.0000      -1.196027       -32.5456
  10   1.0000      -1.196027       -32.5456
  11   1.0000      -1.190605       -32.3980
  12   1.0000      -1.190605       -32.3980
  13   1.0000      -1.188950       -32.3530
  14   1.0000      -0.456135       -12.4121
  15   1.0000      -0.215732        -5.8704
  16   0.0000       0.020162         0.5486
  17   0.0000       0.020162         0.5486
  18   0.0000       0.042228         1.1491
  19   0.0000       0.107219         2.9176
  20   0.0000       0.107219         2.9176

                 SPIN DOWN ORBITALS
  NO   OCC          E(Eh)            E(eV)
   0   1.0000    -378.816746    -10308.1277
   1   1.0000     -48.167459     -1310.7032
   2   1.0000     -42.493444     -1156.3054
   3   1.0000     -42.493444     -1156.3054
   4   1.0000     -42.490867     -1156.2353
   5   1.0000      -6.392913      -173.9600
   6   1.0000      -4.483483      -122.0018
   7   1.0000      -4.483483      -122.0018
   8   1.0000      -4.473346      -121.7259
   9   1.0000      -1.197085       -32.5743
  10   1.0000      -1.197085       -32.5743
  11   1.0000      -1.189192       -32.3596
  12   1.0000      -1.189192       -32.3596
  13   1.0000      -1.186746       -32.2930
  14   1.0000      -0.394226       -10.7274
  15   0.0000       0.028655         0.7798
  16   0.0000       0.028655         0.7798
  17   0.0000       0.045899         1.2490
  18   0.0000       0.059728         1.6253
  19   0.0000       0.108136         2.9425

E(0)                                       ...  -1923.263635961
E(0)                                       ...  -1923.263635961
E(CORR)                                    ...     -0.406566836
E(TOT)                                     ...  -1923.670202798
E(CCSD(T))                                 ...  -1923.681655069

MULLIKEN ATOMIC CHARGES AND SPIN DENSITIES
------------------------------------------
   0 Ga:   -0.000000    1.000000
Sum of atomic charges       :   -0.0000000

LOEWDIN ATOMIC CHARGES AND SPIN DENSITIES
-----------------------------------------
   0 Ga:   -0.000000    1.000000

FINAL SINGLE POINT ENERGY     -1923.681655068688

DIPOLE MOMENT
-------------
                                X             Y             Z
Electronic contribution:      0.00000       0.00000      -0.00000
Nuclear contribution   :      0.00000       0.00000       0.00000
                        -----------------------------------------
Total Dipole Moment    :      0.00000       0.00000      -0.00000
                        -----------------------------------------
Magnitude (a.u.)       :      0.00000
Magnitude (Debye)      :      0.00000

Rotational constants in cm-1:     0.000000     0.000000     0.000000
Rotational constants in MHz :     0.000000     0.000000     0.000000

                             ****ORCA TERMINATED NORMALLY****
TOTAL RUN TIME: 0 days 0 hours 0 minutes 45 seconds 717 msec
