                         Program Version 4.2.0 -  RELEASE  -
|  1> #
|  2> # 32_Ge CCSD(T)/Def2-QZVPPD
|  3> #
|  4> ! CCSD(T) Def2-QZVPPD tightscf
|  5>
|  6> *xyz 0 3
|  7>  Ge 0.0 0.0 0.0
|  8> *
|  9>
| 10> %maxcore 5000
| 11>
| 12> %pal
| 13> nprocs 24
| 14> end
| 15>
| 16>
| 17>                          ****END OF INPUT****

CARTESIAN COORDINATES (ANGSTROEM)
---------------------------------
  Ge     0.000000    0.000000    0.000000

 Total Charge           Charge          ....    0
 Multiplicity           Mult            ....    3
 Number of Electrons    NEL             ....   32
 Basis Dimension        Dim             ....   95

ORBITAL ENERGIES
----------------
                 SPIN UP ORBITALS
  NO   OCC          E(Eh)            E(eV)
   0   1.0000    -405.245529    -11027.2915
   1   1.0000     -52.149854     -1419.0697
   2   1.0000     -46.237396     -1258.1835
   3   1.0000     -46.237396     -1258.1835
   4   1.0000     -46.236330     -1258.1545
   5   1.0000      -7.192950      -195.7301
   6   1.0000      -5.165555      -140.5619
   7   1.0000      -5.165555      -140.5619
   8   1.0000      -5.164445      -140.5317
   9   1.0000      -1.640371       -44.6368
  10   1.0000      -1.638071       -44.5742
  11   1.0000      -1.638071       -44.5742
  12   1.0000      -1.631566       -44.3972
  13   1.0000      -1.631566       -44.3972
  14   1.0000      -0.629737       -17.1360
  15   1.0000      -0.291208        -7.9242
  16   1.0000      -0.291208        -7.9242
  17   0.0000      -0.008307        -0.2260
  18   0.0000       0.055148         1.5006
  19   0.0000       0.134813         3.6684
  20   0.0000       0.134813         3.6684
  21   0.0000       0.135660         3.6915

                 SPIN DOWN ORBITALS
  NO   OCC          E(Eh)            E(eV)
   0   1.0000    -405.241730    -11027.1881
   1   1.0000     -52.149189     -1419.0516
   2   1.0000     -46.236184     -1258.1505
   3   1.0000     -46.232398     -1258.0475
   4   1.0000     -46.232398     -1258.0475
   5   1.0000      -7.187092      -195.5707
   6   1.0000      -5.165485      -140.5600
   7   1.0000      -5.151478      -140.1788
   8   1.0000      -5.151478      -140.1788
   9   1.0000      -1.639130       -44.6030
  10   1.0000      -1.635443       -44.5027
  11   1.0000      -1.635443       -44.5027
  12   1.0000      -1.624878       -44.2152
  13   1.0000      -1.624878       -44.2152
  14   1.0000      -0.479013       -13.0346
  15   0.0000       0.013751         0.3742
  16   0.0000       0.053409         1.4533
  17   0.0000       0.053409         1.4533
  18   0.0000       0.063109         1.7173
  19   0.0000       0.144533         3.9329

E(0)                                       ...  -2075.363003163
E(0)                                       ...  -2075.363003163
E(CORR)                                    ...     -0.429106338
E(TOT)                                     ...  -2075.792109501
E(CCSD(T))                                 ...  -2075.802075618

MULLIKEN ATOMIC CHARGES AND SPIN DENSITIES
------------------------------------------
   0 Ge:    0.000000    2.000000
Sum of atomic charges       :    0.0000000

LOEWDIN ATOMIC CHARGES AND SPIN DENSITIES
-----------------------------------------
   0 Ge:    0.000000    2.000000

FINAL SINGLE POINT ENERGY     -2075.802075617695

DIPOLE MOMENT
-------------
                                X             Y             Z
Electronic contribution:      0.00000       0.00000       0.00000
Nuclear contribution   :      0.00000       0.00000       0.00000
                        -----------------------------------------
Total Dipole Moment    :      0.00000       0.00000       0.00000
                        -----------------------------------------
Magnitude (a.u.)       :      0.00000
Magnitude (Debye)      :      0.00000

Rotational constants in cm-1:     0.000000     0.000000     0.000000
Rotational constants in MHz :     0.000000     0.000000     0.000000

                             ****ORCA TERMINATED NORMALLY****
TOTAL RUN TIME: 0 days 0 hours 0 minutes 25 seconds 494 msec
