                         Program Version 4.2.0 -  RELEASE  -
|  1> #
|  2> # 33_As CCSD(T)/Def2-QZVPPD
|  3> #
|  4> ! CCSD(T) Def2-QZVPPD tightscf
|  5>
|  6> *xyz 0 4
|  7>  As 0.0 0.0 0.0
|  8> *
|  9>
| 10> %maxcore 5000
| 11>
| 12> %pal
| 13> nprocs 24
| 14> end
| 15>
| 16>
| 17>                          ****END OF INPUT****

CARTESIAN COORDINATES (ANGSTROEM)
---------------------------------
  As     0.000000    0.000000    0.000000

 Total Charge           Charge          ....    0
 Multiplicity           Mult            ....    4
 Number of Electrons    NEL             ....   33
 Basis Dimension        Dim             ....   95

ORBITAL ENERGIES
----------------
                 SPIN UP ORBITALS
  NO   OCC          E(Eh)            E(eV)
   0   1.0000    -432.591166    -11771.4041
   1   1.0000     -56.312150     -1532.3315
   2   1.0000     -50.158785     -1364.8899
   3   1.0000     -50.158785     -1364.8899
   4   1.0000     -50.158785     -1364.8899
   5   1.0000      -8.036555      -218.6858
   6   1.0000      -5.890702      -160.2941
   7   1.0000      -5.890702      -160.2941
   8   1.0000      -5.890702      -160.2941
   9   1.0000      -2.117360       -57.6163
  10   1.0000      -2.117360       -57.6163
  11   1.0000      -2.117360       -57.6163
  12   1.0000      -2.117360       -57.6163
  13   1.0000      -2.117360       -57.6163
  14   1.0000      -0.815558       -22.1924
  15   1.0000      -0.370152       -10.0723
  16   1.0000      -0.370152       -10.0723
  17   1.0000      -0.370152       -10.0723
  18   0.0000       0.066297         1.8040
  19   0.0000       0.159570         4.3421
  20   0.0000       0.159570         4.3421
  21   0.0000       0.159570         4.3421
  22   0.0000       0.159570         4.3421

                 SPIN DOWN ORBITALS
  NO   OCC          E(Eh)            E(eV)
   0   1.0000    -432.583207    -11771.1875
   1   1.0000     -56.309179     -1532.2507
   2   1.0000     -50.150604     -1364.6673
   3   1.0000     -50.150604     -1364.6673
   4   1.0000     -50.150604     -1364.6673
   5   1.0000      -8.022347      -218.2992
   6   1.0000      -5.870368      -159.7408
   7   1.0000      -5.870368      -159.7408
   8   1.0000      -5.870368      -159.7408
   9   1.0000      -2.107630       -57.3515
  10   1.0000      -2.107630       -57.3515
  11   1.0000      -2.107630       -57.3515
  12   1.0000      -2.107630       -57.3515
  13   1.0000      -2.107630       -57.3515
  14   1.0000      -0.555995       -15.1294
  15   0.0000       0.038089         1.0365
  16   0.0000       0.038089         1.0365
  17   0.0000       0.038089         1.0365
  18   0.0000       0.078950         2.1483
  19   0.0000       0.184665         5.0250

E(0)                                       ...  -2234.239146302
E(0)                                       ...  -2234.239146302
E(CORR)                                    ...     -0.459243837
E(TOT)                                     ...  -2234.698390139
E(CCSD(T))                                 ...  -2234.708210851

MULLIKEN ATOMIC CHARGES AND SPIN DENSITIES
------------------------------------------
   0 As:    0.000000    3.000000
Sum of atomic charges       :    0.0000000

LOEWDIN ATOMIC CHARGES AND SPIN DENSITIES
-----------------------------------------
   0 As:    0.000000    3.000000

FINAL SINGLE POINT ENERGY     -2234.708210850901

DIPOLE MOMENT
-------------
                                X             Y             Z
Electronic contribution:      0.00000      -0.00000       0.00000
Nuclear contribution   :      0.00000       0.00000       0.00000
                        -----------------------------------------
Total Dipole Moment    :      0.00000      -0.00000       0.00000
                        -----------------------------------------
Magnitude (a.u.)       :      0.00000
Magnitude (Debye)      :      0.00000

Rotational constants in cm-1:     0.000000     0.000000     0.000000
Rotational constants in MHz :     0.000000     0.000000     0.000000

                             ****ORCA TERMINATED NORMALLY****
TOTAL RUN TIME: 0 days 0 hours 0 minutes 24 seconds 349 msec
