                         Program Version 4.2.0 -  RELEASE  -
|  1> #
|  2> # 34_Se CCSD(T)/Def2-QZVPPD
|  3> #
|  4> ! CCSD(T) Def2-QZVPPD tightscf
|  5>
|  6> *xyz 0 3
|  7>  Se 0.0 0.0 0.0
|  8> *
|  9>
| 10> %maxcore 5000
| 11>
| 12> %pal
| 13> nprocs 24
| 14> end
| 15>
| 16>
| 17>                          ****END OF INPUT****

CARTESIAN COORDINATES (ANGSTROEM)
---------------------------------
  Se     0.000000    0.000000    0.000000

 Total Charge           Charge          ....    0
 Multiplicity           Mult            ....    3
 Number of Electrons    NEL             ....   34
 Basis Dimension        Dim             ....   98

ORBITAL ENERGIES
----------------
                 SPIN UP ORBITALS
  NO   OCC          E(Eh)            E(eV)
   0   1.0000    -460.871099    -12540.9402
   1   1.0000     -60.670631     -1650.9318
   2   1.0000     -54.274947     -1476.8964
   3   1.0000     -54.274947     -1476.8964
   4   1.0000     -54.268877     -1476.7312
   5   1.0000      -8.938195      -243.2207
   6   1.0000      -6.676727      -181.6830
   7   1.0000      -6.676727      -181.6830
   8   1.0000      -6.657219      -181.1521
   9   1.0000      -2.662841       -72.4596
  10   1.0000      -2.662841       -72.4596
  11   1.0000      -2.649104       -72.0858
  12   1.0000      -2.649104       -72.0858
  13   1.0000      -2.644619       -71.9637
  14   1.0000      -0.936540       -25.4845
  15   1.0000      -0.448052       -12.1921
  16   1.0000      -0.448052       -12.1921
  17   1.0000      -0.384499       -10.4627
  18   0.0000       0.062541         1.7018
  19   0.0000       0.062541         1.7018
  20   0.0000       0.068036         1.8513
  21   0.0000       0.072599         1.9755
  22   0.0000       0.171190         4.6583

                 SPIN DOWN ORBITALS
  NO   OCC          E(Eh)            E(eV)
   0   1.0000    -460.864030    -12540.7478
   1   1.0000     -60.667223     -1650.8391
   2   1.0000     -54.266812     -1476.6750
   3   1.0000     -54.264385     -1476.6090
   4   1.0000     -54.264385     -1476.6090
   5   1.0000      -8.925061      -242.8632
   6   1.0000      -6.654502      -181.0782
   7   1.0000      -6.650800      -180.9775
   8   1.0000      -6.650800      -180.9775
   9   1.0000      -2.649428       -72.0946
  10   1.0000      -2.649428       -72.0946
  11   1.0000      -2.642351       -71.9020
  12   1.0000      -2.642351       -71.9020
  13   1.0000      -2.640127       -71.8415
  14   1.0000      -0.741894       -20.1880
  15   1.0000      -0.349062        -9.4985
  16   0.0000      -0.006363        -0.1731
  17   0.0000      -0.006363        -0.1731
  18   0.0000       0.069001         1.8776
  19   0.0000       0.078932         2.1479
  20   0.0000       0.078932         2.1479

E(0)                                       ...  -2399.874716415
E(0)                                       ...  -2399.874716415
E(CORR)                                    ...     -0.502699941
E(TOT)                                     ...  -2400.377416356
E(CCSD(T))                                 ...  -2400.387401819

MULLIKEN ATOMIC CHARGES AND SPIN DENSITIES
------------------------------------------
   0 Se:   -0.000000    2.000000
Sum of atomic charges       :   -0.0000000

LOEWDIN ATOMIC CHARGES AND SPIN DENSITIES
-----------------------------------------
   0 Se:   -0.000000    2.000000

FINAL SINGLE POINT ENERGY     -2400.387401818585

DIPOLE MOMENT
-------------
                                X             Y             Z
Electronic contribution:      0.00000       0.00000      -0.00000
Nuclear contribution   :      0.00000       0.00000       0.00000
                        -----------------------------------------
Total Dipole Moment    :      0.00000       0.00000      -0.00000
                        -----------------------------------------
Magnitude (a.u.)       :      0.00000
Magnitude (Debye)      :      0.00000

Rotational constants in cm-1:     0.000000     0.000000     0.000000
Rotational constants in MHz :     0.000000     0.000000     0.000000

                             ****ORCA TERMINATED NORMALLY****
TOTAL RUN TIME: 0 days 0 hours 0 minutes 43 seconds 538 msec
