                         Program Version 4.2.0 -  RELEASE  -
|  1> #
|  2> # 35_Br CCSD(T)/Def2-QZVPPD
|  3> #
|  4> ! CCSD(T) Def2-QZVPPD tightscf
|  5>
|  6> *xyz 0 2
|  7>  Br 0.0 0.0 0.0
|  8> *
|  9>
| 10> %maxcore 5000
| 11>
| 12> %pal
| 13> nprocs 24
| 14> end
| 15>
| 16>
| 17>                          ****END OF INPUT****

CARTESIAN COORDINATES (ANGSTROEM)
---------------------------------
  Br     0.000000    0.000000    0.000000

 Total Charge           Charge          ....    0
 Multiplicity           Mult            ....    2
 Number of Electrons    NEL             ....   35
 Basis Dimension        Dim             ....   98

ORBITAL ENERGIES
----------------
                 SPIN UP ORBITALS
  NO   OCC          E(Eh)            E(eV)
   0   1.0000    -490.062553    -13335.2800
   1   1.0000     -65.201045     -1774.2106
   2   1.0000     -58.561590     -1593.5419
   3   1.0000     -58.554250     -1593.3421
   4   1.0000     -58.554250     -1593.3421
   5   1.0000      -9.875433      -268.7242
   6   1.0000      -7.498535      -204.0455
   7   1.0000      -7.475745      -203.4254
   8   1.0000      -7.475745      -203.4254
   9   1.0000      -3.233093       -87.9769
  10   1.0000      -3.227734       -87.8311
  11   1.0000      -3.227734       -87.8311
  12   1.0000      -3.211888       -87.3999
  13   1.0000      -3.211888       -87.3999
  14   1.0000      -1.047981       -28.5170
  15   1.0000      -0.523880       -14.2555
  16   1.0000      -0.454322       -12.3627
  17   1.0000      -0.454322       -12.3627
  18   0.0000       0.059809         1.6275
  19   0.0000       0.064488         1.7548
  20   0.0000       0.064488         1.7548
  21   0.0000       0.088469         2.4074
  22   0.0000       0.201227         5.4757

                 SPIN DOWN ORBITALS
  NO   OCC          E(Eh)            E(eV)
   0   1.0000    -490.058162    -13335.1605
   1   1.0000     -65.198656     -1774.1456
   2   1.0000     -58.552821     -1593.3033
   3   1.0000     -58.552821     -1593.3033
   4   1.0000     -58.549542     -1593.2140
   5   1.0000      -9.867223      -268.5008
   6   1.0000      -7.473683      -203.3693
   7   1.0000      -7.473683      -203.3693
   8   1.0000      -7.468971      -203.2410
   9   1.0000      -3.222266       -87.6823
  10   1.0000      -3.219502       -87.6071
  11   1.0000      -3.219502       -87.6071
  12   1.0000      -3.211533       -87.3902
  13   1.0000      -3.211533       -87.3902
  14   1.0000      -0.941000       -25.6059
  15   1.0000      -0.434229       -11.8160
  16   1.0000      -0.434229       -11.8160
  17   0.0000      -0.049123        -1.3367
  18   0.0000       0.064846         1.7646
  19   0.0000       0.064846         1.7646
  20   0.0000       0.069306         1.8859
  21   0.0000       0.092600         2.5198

E(0)                                       ...  -2572.447729311
E(0)                                       ...  -2572.447729311
E(CORR)                                    ...     -0.550702891
E(TOT)                                     ...  -2572.998432203
E(CCSD(T))                                 ...  -2573.009100253

MULLIKEN ATOMIC CHARGES AND SPIN DENSITIES
------------------------------------------
   0 Br:   -0.000000    1.000000
Sum of atomic charges       :   -0.0000000

LOEWDIN ATOMIC CHARGES AND SPIN DENSITIES
-----------------------------------------
   0 Br:   -0.000000    1.000000

FINAL SINGLE POINT ENERGY     -2573.009100253395

DIPOLE MOMENT
-------------
                                X             Y             Z
Electronic contribution:      0.00000       0.00000       0.00000
Nuclear contribution   :      0.00000       0.00000       0.00000
                        -----------------------------------------
Total Dipole Moment    :      0.00000       0.00000       0.00000
                        -----------------------------------------
Magnitude (a.u.)       :      0.00000
Magnitude (Debye)      :      0.00000

Rotational constants in cm-1:     0.000000     0.000000     0.000000
Rotational constants in MHz :     0.000000     0.000000     0.000000

                             ****ORCA TERMINATED NORMALLY****
TOTAL RUN TIME: 0 days 0 hours 0 minutes 28 seconds 347 msec
