                         Program Version 4.2.0 -  RELEASE  -
|  1> #
|  2> # 36_Kr CCSD(T)/Def2-QZVPPD
|  3> #
|  4> ! CCSD(T) Def2-QZVPPD tightscf
|  5>
|  6> *xyz 0 1
|  7>  Kr 0.0 0.0 0.0
|  8> *
|  9>
| 10> %maxcore 5000
| 11>
| 12> %pal
| 13> nprocs 24
| 14> end
| 15>
| 16>
| 17>                          ****END OF INPUT****

CARTESIAN COORDINATES (ANGSTROEM)
---------------------------------
  Kr     0.000000    0.000000    0.000000

 Total Charge           Charge          ....    0
 Multiplicity           Mult            ....    1
 Number of Electrons    NEL             ....   36
 Basis Dimension        Dim             ....   98

ORBITAL ENERGIES
----------------

  NO   OCC          E(Eh)            E(eV)
   0   2.0000    -520.166195    -14154.4418
   1   2.0000     -69.903671     -1902.1756
   2   2.0000     -63.010451     -1714.6015
   3   2.0000     -63.010451     -1714.6015
   4   2.0000     -63.010451     -1714.6015
   5   2.0000     -10.849536      -295.2309
   6   2.0000      -8.331597      -226.7143
   7   2.0000      -8.331597      -226.7143
   8   2.0000      -8.331597      -226.7143
   9   2.0000      -3.825323      -104.0923
  10   2.0000      -3.825323      -104.0923
  11   2.0000      -3.825323      -104.0923
  12   2.0000      -3.825323      -104.0923
  13   2.0000      -3.825323      -104.0923
  14   2.0000      -1.152982       -31.3742
  15   2.0000      -0.524222       -14.2648
  16   2.0000      -0.524222       -14.2648
  17   2.0000      -0.524222       -14.2648
  18   0.0000       0.069570         1.8931
  19   0.0000       0.069570         1.8931
  20   0.0000       0.069570         1.8931
  21   0.0000       0.105965         2.8835
  22   0.0000       0.244156         6.6438

E(0)                                       ...  -2752.054315454
E(0)                                       ...  -2752.054315454
E(CORR)                                    ...     -0.600855432
E(TOT)                                     ...  -2752.655170886
E(CCSD(T))                                 ...  -2752.666692686

MULLIKEN ATOMIC CHARGES
-----------------------
   0 Kr:    0.000000
Sum of atomic charges:    0.0000000

LOEWDIN ATOMIC CHARGES
----------------------
   0 Kr:   -0.000000

FINAL SINGLE POINT ENERGY     -2752.666692685959

DIPOLE MOMENT
-------------
                                X             Y             Z
Electronic contribution:     -0.00000       0.00000      -0.00000
Nuclear contribution   :      0.00000       0.00000       0.00000
                        -----------------------------------------
Total Dipole Moment    :     -0.00000       0.00000      -0.00000
                        -----------------------------------------
Magnitude (a.u.)       :      0.00000
Magnitude (Debye)      :      0.00000

Rotational constants in cm-1:     0.000000     0.000000     0.000000
Rotational constants in MHz :     0.000000     0.000000     0.000000

                             ****ORCA TERMINATED NORMALLY****
TOTAL RUN TIME: 0 days 0 hours 0 minutes 12 seconds 141 msec
