                         Program Version 4.2.0 -  RELEASE  -
|  1> # input to generate an atomic fitting density for Rb
|  2> # this file is use internally by ORCA
|  3> #
|  4> # atomic ground state (S=2): 1s2 2s2 2p6 3s2 3p6 4s2 3d10 4p6 5s1
|  5> #
|  6> ! RHF AllowRHF def2-SVP def2/J  NoMulliken NoLoewdin NoMayer NoPrintMOs
|  7>
|  8> %output print[p_atomdensfit] 2 end
|  9>
| 10> %scf
| 11>   guess hcore
| 12>   maxiter 1000
| 13>   maxdisk 500000
| 14>   SCFMode Conventional
| 15>   lshift 1.000000
| 16>   hftyp rohf
| 17>   rohf_case sahf
| 18>   rohf_numop   2
| 19>   rohf_norb[1] 1
| 20>   rohf_nel[1]  1
| 21> end
| 22>
| 23> %basis
| 24>   NewECP 37
| 25>     N_core 28
| 26>     lmax f
| 27>     s 3
| 28>       1       5.0365510000     89.5001980000  2
| 29>       2       1.9708490000      0.4937610000  2
| 30>       3       3.8431140000     12.3169000000  2
| 31>     p 3
| 32>       1       4.2583410000     58.5689740000  2
| 33>       2       1.4707090000      0.4317910000  2
| 34>       3       3.8431140000     12.3169000000  2
| 35>     d 3
| 36>       1       3.0231270000     26.2248980000  2
| 37>       2       0.6503830000      0.9628390000  2
| 38>       3       3.8431140000     12.3169000000  2
| 39>     f 1
| 40>       1       3.8431140000    -12.3169000000  2
| 41>   end
| 42>   NewGTO 37
| 43>     s 2
| 44>      1       7.4744618040      1.7113333971
| 45>      2       6.7296180594     -2.7017486490
| 46>     s 1
| 47>      1       2.7822883445      1.0000000000
| 48>     s 1
| 49>      1       0.5349454465      1.0000000000
| 50>     s 1
| 51>      1       0.2252295935      1.0000000000
| 52>     s 1
| 53>      1       0.0507655804      1.0000000000
| 54>     s 1
| 55>      1       0.0269402818      1.0000000000
| 56>     s 1
| 57>      1       0.0130513955      1.0000000000
| 58>     p 4
| 59>      1       5.9998960731      0.0487231062
| 60>      2       3.2040784712     -0.2361467568
| 61>      3       0.8699197995      0.4467386139
| 62>      4       0.4410416973      0.6718328771
| 63>     p 1
| 64>      1       0.2213989823      1.0000000000
| 65>     p 1
| 66>      1       0.1067903970      1.0000000000
| 67>     p 1
| 68>      1       0.0332926588      1.0000000000
| 69>     p 1
| 70>      1       0.0128470038      1.0000000000
| 71>   end
| 72>   NewAuxGTO 37
| 73>     S 1
| 74>      1 1310.72 1.0
| 75>     S 1
| 76>      1  655.36 1.0
| 77>     S 1
| 78>      1  327.68 1.0
| 79>     S 1
| 80>      1  163.84 1.0
| 81>     S 1
| 82>      1   81.82 1.0
| 83>     S 1
| 84>      1   40.96 1.0
| 85>     S 1
| 86>      1   20.48 1.0
| 87>     S 1
| 88>      1   10.24 1.0
| 89>     S 1
| 90>      1    5.12 1.0
| 91>     S 1
| 92>      1    2.56 1.0
| 93>     S 1
| 94>      1    1.28 1.0
| 95>     S 1
| 96>      1    0.64 1.0
| 97>     S 1
| 98>      1    0.32 1.0
| 99>     S 1
|100>      1    0.16 1.0
|101>     S 1
|102>      1    0.08 1.0
|103>     S 1
|104>      1    0.04 1.0
|105>     S 1
|106>      1    0.02 1.0
|107>     S 1
|108>      1    0.01 1.0
|109>   end
|110> end
|111>
|112> * xyz 0 2
|113> 37  0.0 0.0 0.0
|114> *
|115>
|116>
|117>                          ****END OF INPUT****

CARTESIAN COORDINATES (ANGSTROEM)
---------------------------------
  Rb     0.000000    0.000000    0.000000

 Total Charge           Charge          ....    0
 Multiplicity           Mult            ....    2
 Number of Electrons    NEL             ....    9
 Basis Dimension        Dim             ....   22

ORBITAL ENERGIES
----------------

  NO   OCC          E(Eh)            E(eV)
   0   2.0000      -1.576902       -42.9097
   1   2.0000      -0.808645       -22.0043
   2   2.0000      -0.808645       -22.0043
   3   2.0000      -0.808645       -22.0043
   4   1.0000      -0.140059        -3.8112
   5   0.0000      -0.080770        -2.1979
   6   0.0000      -0.080770        -2.1979
   7   0.0000      -0.080770        -2.1979
   8   0.0000      -0.050102        -1.3634
   9   0.0000      -0.033178        -0.9028

--------------------------
ATOM BASIS FOR ELEMENT Rb
--------------------------
 NewGTO Rb
 S 8
    1          7.474461804000        -0.279389570663
    2          6.729618059400         0.441083190665
    3          2.782288344500        -0.553521561523
    4          0.534945446500         0.791692785409
    5          0.225229593500         0.435288839118
    6          0.050765580400         0.009668667811
    7          0.026940281800        -0.001959364768
    8          0.013051395500         0.000292168229
 S 8
    1          7.474461804000        -0.063739927815
    2          6.729618059400         0.100628705168
    3          2.782288344500        -0.133249885681
    4          0.534945446500         0.224158467199
    5          0.225229593500         0.292781564404
    6          0.050765580400        -0.158057483510
    7          0.026940281800        -0.750970040356
    8          0.013051395500        -0.232005032560
 S 8
    1          7.474461804000         0.034733861383
    2          6.729618059400        -0.054835699009
    3          2.782288344500         0.069988593928
    4          0.534945446500        -0.162893388154
    5          0.225229593500         0.035045932652
    6          0.050765580400        -1.503381753786
    7          0.026940281800         4.417920045787
    8          0.013051395500        -3.233382361801
 S 8
    1          7.474461804000         0.063114058688
    2          6.729618059400        -0.099640621215
    3          2.782288344500         0.142255287642
    4          0.534945446500        -0.075825505032
    5          0.225229593500        -1.163072763738
    6          0.050765580400         5.842101278594
    7          0.026940281800        -7.069328444199
    8          0.013051395500         2.449361321222
 S 8
    1          7.474461804000        -0.433446649500
    2          6.729618059400         0.684299097818
    3          2.782288344500        -0.862401209010
    4          0.534945446500         3.428905019284
    5          0.225229593500        -4.164293952903
    6          0.050765580400         3.940617371624
    7          0.026940281800        -3.521069866528
    8          0.013051395500         1.072997443447
 S 8
    1          7.474461804000        -3.262296335294
    2          6.729618059400         5.150314211979
    3          2.782288344500        -3.224178394743
    4          0.534945446500         1.915369703677
    5          0.225229593500        -1.382806943701
    6          0.050765580400         0.978863872378
    7          0.026940281800        -0.872178218504
    8          0.013051395500         0.270323437718
 S 8
    1          7.474461804000        -3.897883302345
    2          6.729618059400         6.153740097585
    3          2.782288344500        -1.779608583981
    4          0.534945446500         0.691335728936
    5          0.225229593500        -0.477967299888
    6          0.050765580400         0.336041639268
    7          0.026940281800        -0.299962590141
    8          0.013051395500         0.093162392177
 P 8
    1          5.999896073100        -0.032834956414
    2          3.204078471200         0.159141505365
    3          0.869919799500        -0.301061325102
    4          0.441041697300        -0.452754451784
    5          0.221398982300        -0.316723895368
    6          0.106790397000        -0.078256759322
    7          0.033292658800        -0.002967722726
    8          0.012847003800         0.000153831482
 P 8
    1          5.999896073100        -0.002503630592
    2          3.204078471200         0.012134370953
    3          0.869919799500        -0.022955606647
    4          0.441041697300        -0.034522046627
    5          0.221398982300        -0.090812341352
    6          0.106790397000         0.097961431022
    7          0.033292658800        -0.185116466280
    8          0.012847003800         1.118035449263
 P 8
    1          5.999896073100        -0.008284399553
    2          3.204078471200         0.040152080584
    3          0.869919799500        -0.075959056429
    4          0.441041697300        -0.114231879302
    5          0.221398982300         0.068120623657
    6          0.106790397000        -0.441701792217
    7          0.033292658800         1.903037770482
    8          0.012847003800        -1.240051405138
 P 8
    1          5.999896073100         0.009046688857
    2          3.204078471200        -0.043846675630
    3          0.869919799500         0.082948431563
    4          0.441041697300         0.124742929520
    5          0.221398982300         1.404122521314
    6          0.106790397000        -2.760303785820
    7          0.033292658800         1.695879104682
    8          0.012847003800        -0.643431063201
 P 8
    1          5.999896073100        -0.103319252562
    2          3.204078471200         0.500758434968
    3          0.869919799500        -0.947326705511
    4          0.441041697300        -1.424647895468
    5          0.221398982300         3.993697796472
    6          0.106790397000        -2.745301871132
    7          0.033292658800         0.953090577446
    8          0.012847003800        -0.335865211018
 end
  // -----------------------------------------------
  // The basis set
  // -----------------------------------------------
  BAS[ATNO] = new BFNGauss[NSH];
  // Basis function   1 L = s
  InitBFNGauss(BAS[ATNO][  0]);
  BAS[ATNO][  0].l  = 0;
  BAS[ATNO][  0].ng = 8;
  BAS[ATNO][  0].a[  0] =         7.474461804000;     BAS[ATNO][  0].d[  0] =        -0.279389570663;
  BAS[ATNO][  0].a[  1] =         6.729618059400;     BAS[ATNO][  0].d[  1] =         0.441083190665;
  BAS[ATNO][  0].a[  2] =         2.782288344500;     BAS[ATNO][  0].d[  2] =        -0.553521561523;
  BAS[ATNO][  0].a[  3] =         0.534945446500;     BAS[ATNO][  0].d[  3] =         0.791692785409;
  BAS[ATNO][  0].a[  4] =         0.225229593500;     BAS[ATNO][  0].d[  4] =         0.435288839118;
  BAS[ATNO][  0].a[  5] =         0.050765580400;     BAS[ATNO][  0].d[  5] =         0.009668667811;
  BAS[ATNO][  0].a[  6] =         0.026940281800;     BAS[ATNO][  0].d[  6] =        -0.001959364768;
  BAS[ATNO][  0].a[  7] =         0.013051395500;     BAS[ATNO][  0].d[  7] =         0.000292168229;

FINAL SINGLE POINT ENERGY       -23.802452862546

DIPOLE MOMENT
-------------
                                X             Y             Z
Electronic contribution:     -0.00000       0.00000      -0.00000
Nuclear contribution   :      0.00000       0.00000       0.00000
                        -----------------------------------------
Total Dipole Moment    :     -0.00000       0.00000      -0.00000
                        -----------------------------------------
Magnitude (a.u.)       :      0.00000
Magnitude (Debye)      :      0.00000

Rotational constants in cm-1:     0.000000     0.000000     0.000000
Rotational constants in MHz :     0.000000     0.000000     0.000000

                             ****ORCA TERMINATED NORMALLY****
TOTAL RUN TIME: 0 days 0 hours 0 minutes 1 seconds 35 msec
