                         Program Version 4.2.0 -  RELEASE  -
|  1> #
|  2> # 39_Y CCSD(T)/Def2-QZVPPD
|  3> #
|  4> ! CCSD(T) Def2-QZVPPD tightscf
|  5>
|  6> *xyz 0 2
|  7>  Y 0.0 0.0 0.0
|  8> *
|  9>
| 10> %maxcore 5000
| 11>
| 12> %pal
| 13> nprocs 24
| 14> end
| 15>
| 16>
| 17>                          ****END OF INPUT****

CARTESIAN COORDINATES (ANGSTROEM)
---------------------------------
   Y     0.000000    0.000000    0.000000

 Total Charge           Charge          ....    0
 Multiplicity           Mult            ....    2
 Number of Electrons    NEL             ....   11
 Basis Dimension        Dim             ....   81

ORBITAL ENERGIES
----------------
                 SPIN UP ORBITALS
  NO   OCC          E(Eh)            E(eV)
   0   1.0000      -2.269495       -61.7561
   1   1.0000      -1.332587       -36.2615
   2   1.0000      -1.332581       -36.2614
   3   1.0000      -1.308659       -35.6104
   4   1.0000      -0.238489        -6.4896
   5   1.0000      -0.210876        -5.7382
   6   0.0000       0.017678         0.4810
   7   0.0000       0.017678         0.4810
   8   0.0000       0.025025         0.6810
   9   0.0000       0.058662         1.5963
  10   0.0000       0.079830         2.1723

                 SPIN DOWN ORBITALS
  NO   OCC          E(Eh)            E(eV)
   0   1.0000      -2.241350       -60.9902
   1   1.0000      -1.305382       -35.5213
   2   1.0000      -1.271504       -34.5994
   3   1.0000      -1.271496       -34.5992
   4   1.0000      -0.195846        -5.3293
   5   0.0000       0.014292         0.3889
   6   0.0000       0.028287         0.7697
   7   0.0000       0.028288         0.7698
   8   0.0000       0.058365         1.5882
   9   0.0000       0.084967         2.3121

E(0)                                       ...    -37.820656156
E(0)                                       ...    -37.820656156
E(CORR)                                    ...     -0.277767662
E(TOT)                                     ...    -38.098423818
E(CCSD(T))                                 ...    -38.109484382

MULLIKEN ATOMIC CHARGES AND SPIN DENSITIES
------------------------------------------
   0  Y:   -0.000000    1.000000
Sum of atomic charges       :   -0.0000000

LOEWDIN ATOMIC CHARGES AND SPIN DENSITIES
-----------------------------------------
   0  Y:   -0.000000    1.000000

FINAL SINGLE POINT ENERGY       -38.109484381605

DIPOLE MOMENT
-------------
                                X             Y             Z
Electronic contribution:      0.00000      -0.00000       0.00000
Nuclear contribution   :      0.00000       0.00000       0.00000
                        -----------------------------------------
Total Dipole Moment    :      0.00000      -0.00000       0.00000
                        -----------------------------------------
Magnitude (a.u.)       :      0.00000
Magnitude (Debye)      :      0.00000

Rotational constants in cm-1:     0.000000     0.000000     0.000000
Rotational constants in MHz :     0.000000     0.000000     0.000000

                             ****ORCA TERMINATED NORMALLY****
TOTAL RUN TIME: 0 days 0 hours 0 minutes 23 seconds 273 msec
