                         Program Version 4.2.0 -  RELEASE  -
|  1> # input to generate an atomic fitting density for  Y
|  2> # this file is use internally by ORCA
|  3> #
|  4> # atomic ground state (S=2): 1s2 2s2 2p6 3s2 3p6 4s2 3d10 4p6 4d1 5s2
|  5> #
|  6> ! RHF AllowRHF def2-SVP def2/J  NoMulliken NoLoewdin NoMayer NoPrintMOs
|  7>
|  8> %output print[p_atomdensfit] 2 end
|  9>
| 10> %scf
| 11>   guess hcore
| 12>   maxiter 1000
| 13>   maxdisk 500000
| 14>   SCFMode Conventional
| 15>   lshift 0.600000
| 16>   hftyp rohf
| 17>   rohf_case sahf
| 18>   rohf_numop   3
| 19>   rohf_norb[1] 5,1
| 20>   rohf_nel[1]  1,2
| 21> end
| 22>
| 23> %basis
| 24>   NewECP 39
| 25>     N_core 28
| 26>     lmax f
| 27>     s 4
| 28>       1       7.4880494000    135.1538441000  2
| 29>       2       3.7440247000     15.5524413000  2
| 30>       3       6.5842120000     19.1221981000  2
| 31>       4       3.2921060000      2.4363754000  2
| 32>     p 4
| 33>       1       6.4453772000     87.7849917000  2
| 34>       2       3.2226886000     11.5640660000  2
| 35>       3       6.5842120000     19.1221981000  2
| 36>       4       3.2921060000      2.4363754000  2
| 37>     d 4
| 38>       1       4.6584472000     29.7010007000  2
| 39>       2       2.3292236000      5.5399685000  2
| 40>       3       6.5842120000     19.1221981000  2
| 41>       4       3.2921060000      2.4363754000  2
| 42>     f 2
| 43>       1       6.5842120000    -19.1221981000  2
| 44>       2       3.2921060000     -2.4363754000  2
| 45>   end
| 46>   NewGTO 39
| 47>     s 2
| 48>      1      12.0000000000     -2.5523745896
| 49>      2      10.8000000000      3.5334521673
| 50>     s 1
| 51>      1       3.1007372195      1.0000000000
| 52>     s 1
| 53>      1       0.7415542757      1.0000000000
| 54>     s 1
| 55>      1       0.3417677578      1.0000000000
| 56>     s 1
| 57>      1       0.0794287970      1.0000000000
| 58>     s 1
| 59>      1       0.0433083365      1.0000000000
| 60>     s 1
| 61>      1       0.0215932249      1.0000000000
| 62>     p 4
| 63>      1       8.0336135138      0.0727570321
| 64>      2       4.0181723477     -0.4144826629
| 65>      3       1.1052105890      0.5523578260
| 66>      4       0.8321931669      0.6206436392
| 67>     p 1
| 68>      1       0.4476267667      1.0000000000
| 69>     p 1
| 70>      1       0.2052334711      1.0000000000
| 71>     p 1
| 72>      1       0.0550455618      1.0000000000
| 73>     p 1
| 74>      1       0.0226030275      1.0000000000
| 75>     d 4
| 76>      1      13.7551053470      0.0032608301
| 77>      2       3.9629908552     -0.0343015337
| 78>      3       1.3427449755      0.3058098200
| 79>      4       0.6257924811      0.7558417604
| 80>     d 1
| 81>      1       0.2763236396      1.0000000000
| 82>     d 1
| 83>      1       0.1170698775      1.0000000000
| 84>     d 1
| 85>      1       0.0466015010      1.0000000000
| 86>   end
| 87>   NewAuxGTO 39
| 88>     S 1
| 89>      1 1310.72 1.0
| 90>     S 1
| 91>      1  655.36 1.0
| 92>     S 1
| 93>      1  327.68 1.0
| 94>     S 1
| 95>      1  163.84 1.0
| 96>     S 1
| 97>      1   81.82 1.0
| 98>     S 1
| 99>      1   40.96 1.0
|100>     S 1
|101>      1   20.48 1.0
|102>     S 1
|103>      1   10.24 1.0
|104>     S 1
|105>      1    5.12 1.0
|106>     S 1
|107>      1    2.56 1.0
|108>     S 1
|109>      1    1.28 1.0
|110>     S 1
|111>      1    0.64 1.0
|112>     S 1
|113>      1    0.32 1.0
|114>     S 1
|115>      1    0.16 1.0
|116>     S 1
|117>      1    0.08 1.0
|118>     S 1
|119>      1    0.04 1.0
|120>     S 1
|121>      1    0.02 1.0
|122>     S 1
|123>      1    0.01 1.0
|124>   end
|125> end
|126>
|127> * xyz 0 2
|128> 39  0.0 0.0 0.0
|129> *
|130>
|131>
|132>                          ****END OF INPUT****

CARTESIAN COORDINATES (ANGSTROEM)
---------------------------------
   Y     0.000000    0.000000    0.000000

 Total Charge           Charge          ....    0
 Multiplicity           Mult            ....    2
 Number of Electrons    NEL             ....   11
 Basis Dimension        Dim             ....   42

ORBITAL ENERGIES
----------------

  NO   OCC          E(Eh)            E(eV)
   0   2.0000      -2.390033       -65.0361
   1   2.0000      -1.426239       -38.8099
   2   2.0000      -1.426171       -38.8081
   3   2.0000      -1.425071       -38.7781
   4   0.2000      -0.193607        -5.2683
   5   0.2000      -0.158032        -4.3003
   6   0.2000      -0.157906        -4.2968
   7   0.2000      -0.157880        -4.2961
   8   0.2000      -0.070672        -1.9231
   9   2.0000      -0.262679        -7.1479
  10   0.0000       0.022666         0.6168
  11   0.0000       0.022700         0.6177
  12   0.0000       0.024792         0.6746
  13   0.0000       0.025061         0.6820
  14   0.0000       0.096560         2.6275

CleanUpVectors: The p-vectors have cracked symmetry
CleanUpVectors: The p-vectors have cracked symmetry
CleanUpVectors: The p-vectors have cracked symmetry
CleanUpVectors: The p-vectors have cracked symmetry
CleanUpVectors: The p-vectors have cracked symmetry
CleanUpVectors: The p-vectors have cracked symmetry
CleanUpVectors: The d-vectors have cracked symmetry at i=7
CleanUpVectors: The d-vectors have cracked symmetry at i=10
CleanUpVectors: The d-vectors have cracked symmetry at i=11
CleanUpVectors: The d-vectors have cracked symmetry at i=12
CleanUpVectors: The d-vectors have cracked symmetry at i=13
CleanUpVectors: The p-vectors have cracked symmetry
CleanUpVectors: The p-vectors have cracked symmetry
CleanUpVectors: The p-vectors have cracked symmetry
CleanUpVectors: The d-vectors have cracked symmetry at i=17
CleanUpVectors: The d-vectors have cracked symmetry at i=18
CleanUpVectors: The d-vectors have cracked symmetry at i=19
CleanUpVectors: The d-vectors have cracked symmetry at i=20
CleanUpVectors: The d-vectors have cracked symmetry at i=21
CleanUpVectors: The d-vectors have cracked symmetry at i=23
CleanUpVectors: The d-vectors have cracked symmetry at i=24
CleanUpVectors: The d-vectors have cracked symmetry at i=25
CleanUpVectors: The d-vectors have cracked symmetry at i=26
CleanUpVectors: The d-vectors have cracked symmetry at i=27
CleanUpVectors: The p-vectors have cracked symmetry
CleanUpVectors: The p-vectors have cracked symmetry
CleanUpVectors: The p-vectors have cracked symmetry
CleanUpVectors: The d-vectors have cracked symmetry at i=32
CleanUpVectors: The d-vectors have cracked symmetry at i=33
CleanUpVectors: The d-vectors have cracked symmetry at i=34
CleanUpVectors: The d-vectors have cracked symmetry at i=35
CleanUpVectors: The d-vectors have cracked symmetry at i=36
CleanUpVectors: The p-vectors have cracked symmetry
CleanUpVectors: The p-vectors have cracked symmetry
CleanUpVectors: The p-vectors have cracked symmetry
--------------------------
ATOM BASIS FOR ELEMENT  Y
--------------------------
 NewGTO  Y
 S 8
    1         12.000000000000        -0.275070134515
    2         10.800000000000         0.380801143736
    3          3.100737219500        -0.570281374600
    4          0.741554275700         0.788018337405
    5          0.341767757800         0.479899080861
    6          0.079428797000         0.020968178685
    7          0.043308336500         0.001371653583
    8          0.021593224900         0.002361246069
 P 23
    1          8.033613513800        -0.005443706191
    2          4.018172347700         0.031011735538
    3          1.105210589000        -0.041327602710
    4          0.832193166900        -0.046436770763
    5          8.033613513800        -0.000899936950
    6          4.018172347700         0.005126765792
    7          1.105210589000        -0.006832153575
    8          0.832193166900        -0.007676785698
    9          8.033613513800        -0.030949472009
   10          4.018172347700         0.176313123331
   11          1.105210589000        -0.234962622602
   12          0.832193166900        -0.264010122250
   13          0.447626766700        -0.084781945081
   14          0.447626766700        -0.014015893283
   15          0.447626766700        -0.482016542439
   16          0.205233471100        -0.024043355133
   17          0.205233471100        -0.003974774339
   18          0.205233471100        -0.136695317602
   19          0.055045561800        -0.001188927084
   20          0.055045561800        -0.000196549809
   21          0.055045561800        -0.006759487784
   22          0.022603027500         0.000201239527
   23          0.022603027500         0.000033268307
 P 23
    1          8.033613513800        -0.001480197822
    2          4.018172347700         0.008432399139
    3          1.105210589000        -0.011237385959
    4          0.832193166900        -0.012626619536
    5          8.033613513800        -0.000244701801
    6          4.018172347700         0.001394018576
    7          1.105210589000        -0.001857730464
    8          0.832193166900        -0.002087394333
    9          8.033613513800        -0.008415469066
   10          4.018172347700         0.047941290726
   11          1.105210589000        -0.063888672533
   12          0.832193166900        -0.071786976410
   13          0.447626766700        -0.045822437966
   14          0.447626766700        -0.007575226059
   15          0.447626766700        -0.260517414333
   16          0.205233471100         0.023516459554
   17          0.205233471100         0.003887669560
   18          0.205233471100         0.133699722432
   19          0.055045561800         0.129666777284
   20          0.055045561800         0.021436117193
   21          0.055045561800         0.737203323136
   22          0.022603027500         0.046363609656
   23          0.022603027500         0.007664690917
 S 8
    1         12.000000000000        -0.053964243390
    2         10.800000000000         0.074706931162
    3          3.100737219500        -0.120433029282
    4          0.741554275700         0.254673090029
    5          0.341767757800         0.137850378861
    6          0.079428797000         0.147411911932
    7          0.043308336500        -2.656428604599
    8          0.021593224900         2.684818817717
 S 8
    1         12.000000000000        -0.098000739434
    2         10.800000000000         0.135670103660
    3          3.100737219500        -0.218797248528
    4          0.741554275700         0.392923419663
    5          0.341767757800         0.389209045949
    6          0.079428797000        -0.722339937303
    7          0.043308336500        -0.338697668389
    8          0.021593224900        -0.178597901590
 S 8
    1         12.000000000000         0.064424300956
    2         10.800000000000        -0.089187608577
    3          3.100737219500         0.155284553980
    4          0.741554275700        -0.094551555015
    5          0.341767757800        -1.132015159446
    6          0.079428797000         6.503343470964
    7          0.043308336500        -8.764857816748
    8          0.021593224900         3.461138415475
 S 8
    1         12.000000000000        -0.450052953403
    2         10.800000000000         0.623043572868
    3          3.100737219500        -0.992759727560
    4          0.741554275700         4.284667966040
    5          0.341767757800        -5.053973796094
    6          0.079428797000         4.804016259219
    7          0.043308336500        -4.358524810065
    8          0.021593224900         1.314167990119
 S 8
    1         12.000000000000        -3.465894092079
    2         10.800000000000         4.798108804714
    3          3.100737219500        -2.867785802819
    4          0.741554275700         2.448453186632
    5          0.341767757800        -1.790721047154
    6          0.079428797000         1.208380109971
    7          0.043308336500        -1.083216272259
    8          0.021593224900         0.332444279600
 S 8
    1         12.000000000000        -4.420505290995
    2         10.800000000000         6.119651897754
    3          3.100737219500        -1.239148175501
    4          0.741554275700         0.792330205931
    5          0.341767757800        -0.559569481457
    6          0.079428797000         0.375288625164
    7          0.043308336500        -0.337138833515
    8          0.021593224900         0.103709975090
 D 23
    1         12.000000000000         0.000012248455
    2         10.800000000000        -0.000018840551
    3          3.100737219500         0.000111149777
    4          0.741554275700        -0.000525131142
    5          0.341767757800        -0.004770629283
    6          0.079428797000         0.112949427563
    7          0.043308336500        -0.435746490476
    8          0.021593224900         0.779662371784
    9         13.755105347000         0.001147669170
   10          3.962990855200        -0.012072635342
   11          1.342744975500         0.107631643329
   12          0.625792481100         0.266023147225
   13         13.755105347000         0.000038841612
   14          3.962990855200        -0.000408585180
   15          1.342744975500         0.003642675616
   16          0.625792481100         0.009003263370
   17         13.755105347000        -0.000342948784
   18          3.962990855200         0.003607568901
   19          1.342744975500        -0.032162701702
   20          0.625792481100        -0.079493565882
   21         13.755105347000        -0.000104846232
   22          3.962990855200         0.001102905229
   23          1.342744975500        -0.009832774609
 P 23
    1          8.033613513800        -0.001043675428
    2          4.018172347700         0.005945615953
    3          1.105210589000        -0.007923389314
    4          0.832193166900        -0.008902926594
    5          8.033613513800        -0.000172537247
    6          4.018172347700         0.000982911145
    7          1.105210589000        -0.001309870621
    8          0.832193166900        -0.001471804745
    9          8.033613513800        -0.005933678697
   10          4.018172347700         0.033803013620
   11          1.105210589000        -0.045047382645
   12          0.832193166900        -0.050616412379
   13          0.447626766700        -0.015031947325
   14          0.447626766700        -0.002485035810
   15          0.447626766700        -0.085462149619
   16          0.205233471100        -0.023799184339
   17          0.205233471100        -0.003934408766
   18          0.205233471100        -0.135307116825
   19          0.055045561800         0.270870798577
   20          0.055045561800         0.044779536523
   21          0.055045561800         1.540000122075
   22          0.022603027500        -0.289645543451
   23          0.022603027500        -0.047883320239
 D 23
    1         12.000000000000        -0.000010473364
    2         10.800000000000         0.000016110109
    3          3.100737219500        -0.000092758521
    4          0.741554275700         0.000761473643
    5          0.341767757800         0.001679178737
    6          0.079428797000        -0.051070036618
    7          0.043308336500         0.093327854532
    8          0.021593224900        -0.029529131055
    9         13.755105347000         0.000630293813
   10          3.962990855200        -0.006630227211
   11          1.342744975500         0.059110726879
   12          0.625792481100         0.146098499593
   13         13.755105347000         0.000021379678
   14          3.962990855200        -0.000224898483
   15          1.342744975500         0.002005046342
   16          0.625792481100         0.004955687023
   17         13.755105347000        -0.000188026394
   18          3.962990855200         0.001977899341
   19          1.342744975500        -0.017633644221
   20          0.625792481100        -0.043583442448
   21         13.755105347000        -0.000059345088
   22          3.962990855200         0.000624266669
   23          1.342744975500        -0.005565549320
 D 23
    1         12.000000000000        -0.000012910760
    2         10.800000000000         0.000019859308
    3          3.100737219500        -0.000110506112
    4          0.741554275700         0.001729745351
    5          0.341767757800        -0.003959545684
    6          0.079428797000         0.021662019404
    7          0.043308336500        -0.037485681748
    8          0.021593224900         0.006553661552
    9         13.755105347000         0.000891780549
   10          3.962990855200        -0.009380875303
   11          1.342744975500         0.083633688593
   12          0.625792481100         0.206709628928
   13         13.755105347000         0.000031548238
   14          3.962990855200        -0.000331864252
   15          1.342744975500         0.002958682494
   16          0.625792481100         0.007312701027
   17         13.755105347000        -0.000257405611
   18          3.962990855200         0.002707717657
   19          1.342744975500        -0.024140222316
   20          0.625792481100        -0.059665147875
   21         13.755105347000        -0.000131631226
   22          3.962990855200         0.001384663663
   23          1.342744975500        -0.012344746715
 P 23
    1          8.033613513800         0.002584322688
    2          4.018172347700        -0.014722383784
    3          1.105210589000         0.019619696138
    4          0.832193166900         0.022045201567
    5          8.033613513800         0.000427232366
    6          4.018172347700        -0.002433859704
    7          1.105210589000         0.003243468486
    8          0.832193166900         0.003644445665
    9          8.033613513800         0.014692825052
   10          4.018172347700        -0.083702167028
   11          1.105210589000         0.111545189098
   12          0.832193166900         0.125335079613
   13          0.447626766700         0.231714781011
   14          0.447626766700         0.038306382762
   15          0.447626766700         1.317383759801
   16          0.205233471100        -0.423182705674
   17          0.205233471100        -0.069959277655
   18          0.205233471100        -2.405949337588
   19          0.055045561800         0.284011349297
   20          0.055045561800         0.046951892354
   21          0.055045561800         1.614708986321
   22          0.022603027500        -0.122593955193
   23          0.022603027500        -0.020266859763
 D 23
    1         12.000000000000        -0.000004167788
    2         10.800000000000         0.000006410884
    3          3.100737219500        -0.000038070898
    4          0.741554275700         0.000670964028
    5          0.341767757800        -0.001622794523
    6          0.079428797000         0.005201288785
    7          0.043308336500        -0.005247205049
    8          0.021593224900        -0.001471229777
    9         13.755105347000         0.000063603552
   10          3.962990855200        -0.000669062577
   11          1.342744975500         0.005964920058
   12          0.625792481100         0.014742939507
   13         13.755105347000        -0.000125487766
   14          3.962990855200         0.001320038974
   15          1.342744975500        -0.011768595671
   16          0.625792481100        -0.029087346082
   17         13.755105347000        -0.000866708728
   18          3.962990855200         0.009117138197
   19          1.342744975500        -0.081282382742
   20          0.625792481100        -0.200898124399
   21         13.755105347000         0.004678288677
   22          3.962990855200        -0.049212155125
   23          1.342744975500         0.438743072896
 P 23
    1          8.033613513800        -0.036332156735
    2          4.018172347700         0.206977231447
    3          1.105210589000        -0.275826961720
    4          0.832193166900        -0.309926357976
    5          8.033613513800        -0.006006321647
    6          4.018172347700         0.034216846380
    7          1.105210589000        -0.045598874381
    8          0.832193166900        -0.051236082857
    9          8.033613513800        -0.206561674763
   10          4.018172347700         1.176741691320
   11          1.105210589000        -1.568177732292
   12          0.832193166900        -1.762045342474
   13          0.447626766700         0.791315263492
   14          0.447626766700         0.130817832567
   15          0.447626766700         4.498918335217
   16          0.205233471100        -0.443766160542
   17          0.205233471100        -0.073362071942
   18          0.205233471100        -2.522973849135
   19          0.055045561800         0.152918738693
   20          0.055045561800         0.025280060777
   21          0.055045561800         0.869399276172
   22          0.022603027500        -0.063842660397
   23          0.022603027500        -0.010554274439
 end
  // -----------------------------------------------
  // The basis set
  // -----------------------------------------------
  BAS[ATNO] = new BFNGauss[NSH];
  // Basis function   1 L = s
  InitBFNGauss(BAS[ATNO][  0]);
  BAS[ATNO][  0].l  = 0;
  BAS[ATNO][  0].ng = 8;
  BAS[ATNO][  0].a[  0] =        12.000000000000;     BAS[ATNO][  0].d[  0] =        -0.275070134515;
  BAS[ATNO][  0].a[  1] =        10.800000000000;     BAS[ATNO][  0].d[  1] =         0.380801143736;
  BAS[ATNO][  0].a[  2] =         3.100737219500;     BAS[ATNO][  0].d[  2] =        -0.570281374600;
  BAS[ATNO][  0].a[  3] =         0.741554275700;     BAS[ATNO][  0].d[  3] =         0.788018337405;
  BAS[ATNO][  0].a[  4] =         0.341767757800;     BAS[ATNO][  0].d[  4] =         0.479899080861;
  BAS[ATNO][  0].a[  5] =         0.079428797000;     BAS[ATNO][  0].d[  5] =         0.020968178685;
  BAS[ATNO][  0].a[  6] =         0.043308336500;     BAS[ATNO][  0].d[  6] =         0.001371653583;
  BAS[ATNO][  0].a[  7] =         0.021593224900;     BAS[ATNO][  0].d[  7] =         0.002361246069;

FINAL SINGLE POINT ENERGY       -37.759496793772

DIPOLE MOMENT
-------------
                                X             Y             Z
Electronic contribution:     -0.00000      -0.00000      -0.00000
Nuclear contribution   :      0.00000       0.00000       0.00000
                        -----------------------------------------
Total Dipole Moment    :     -0.00000      -0.00000      -0.00000
                        -----------------------------------------
Magnitude (a.u.)       :      0.00000
Magnitude (Debye)      :      0.00000

Rotational constants in cm-1:     0.000000     0.000000     0.000000
Rotational constants in MHz :     0.000000     0.000000     0.000000

                             ****ORCA TERMINATED NORMALLY****
TOTAL RUN TIME: 0 days 0 hours 0 minutes 3 seconds 375 msec
