                         Program Version 4.2.0 -  RELEASE  -
|  1> # input to generate an atomic fitting density for Zr
|  2> # this file is use internally by ORCA
|  3> #
|  4> # atomic ground state (S=3): 1s2 2s2 2p6 3s2 3p6 4s2 3d10 4p6 4d2 5s2
|  5> #
|  6> ! RHF AllowRHF def2-SVP def2/J  NoMulliken NoLoewdin NoMayer NoPrintMOs
|  7>
|  8> %output print[p_atomdensfit] 2 end
|  9>
| 10> %scf
| 11>   guess hcore
| 12>   maxiter 1000
| 13>   maxdisk 500000
| 14>   SCFMode Conventional
| 15>   lshift 0.300000
| 16>   hftyp rohf
| 17>   rohf_case sahf
| 18>   rohf_numop   3
| 19>   rohf_norb[1] 5,1
| 20>   rohf_nel[1]  2,2
| 21> end
| 22>
| 23> %basis
| 24>   NewECP 40
| 25>     N_core 28
| 26>     lmax f
| 27>     s 4
| 28>       1       8.2000000000    150.2675911000  2
| 29>       2       4.0897278000     18.9762165000  2
| 30>       3       7.5400000000     21.0937760000  2
| 31>       4       3.7700000000      3.0806943000  2
| 32>     p 4
| 33>       1       7.1100000000     99.6221237000  2
| 34>       2       3.5967980000     14.1687333000  2
| 35>       3       7.5400000000     21.0937760000  2
| 36>       4       3.7700000000      3.0806943000  2
| 37>     d 4
| 38>       1       5.3500000000     35.0451235000  2
| 39>       2       2.4918215000      6.1112595000  2
| 40>       3       7.5400000000     21.0937760000  2
| 41>       4       3.7700000000      3.0806943000  2
| 42>     f 2
| 43>       1       7.5400000000    -21.0937760000  2
| 44>       2       3.7700000000     -3.0806943000  2
| 45>   end
| 46>   NewGTO 40
| 47>     s 2
| 48>      1      13.0000000000      2.7122597739
| 49>      2      11.7500000000     -3.6929048164
| 50>     s 1
| 51>      1       3.3679085035      1.0000000000
| 52>     s 1
| 53>      1       0.8381325739      1.0000000000
| 54>     s 1
| 55>      1       0.3909408180      1.0000000000
| 56>     s 1
| 57>      1       0.1216510396      1.0000000000
| 58>     s 1
| 59>      1       0.0689959240      1.0000000000
| 60>     s 1
| 61>      1       0.0281319414      1.0000000000
| 62>     p 4
| 63>      1       8.6639962104      0.0738495817
| 64>      2       4.4109566148     -0.4006375905
| 65>      3       1.2360133871      0.5500353898
| 66>      4       0.8744582059      0.6200119003
| 67>     p 1
| 68>      1       0.4771388764      1.0000000000
| 69>     p 1
| 70>      1       0.2176484526      1.0000000000
| 71>     p 1
| 72>      1       0.0578371636      1.0000000000
| 73>     p 1
| 74>      1       0.0202424566      1.0000000000
| 75>     d 4
| 76>      1      14.1065357100      0.0039684267
| 77>      2       5.0597471810     -0.0266681151
| 78>      3       1.4340490314      0.3355708871
| 79>      4       0.6593312907      0.7259535566
| 80>     d 1
| 81>      1       0.2889495235      1.0000000000
| 82>     d 1
| 83>      1       0.1216073186      1.0000000000
| 84>     d 1
| 85>      1       0.0484700784      1.0000000000
| 86>   end
| 87>   NewAuxGTO 40
| 88>     S 1
| 89>      1 1310.72 1.0
| 90>     S 1
| 91>      1  655.36 1.0
| 92>     S 1
| 93>      1  327.68 1.0
| 94>     S 1
| 95>      1  163.84 1.0
| 96>     S 1
| 97>      1   81.82 1.0
| 98>     S 1
| 99>      1   40.96 1.0
|100>     S 1
|101>      1   20.48 1.0
|102>     S 1
|103>      1   10.24 1.0
|104>     S 1
|105>      1    5.12 1.0
|106>     S 1
|107>      1    2.56 1.0
|108>     S 1
|109>      1    1.28 1.0
|110>     S 1
|111>      1    0.64 1.0
|112>     S 1
|113>      1    0.32 1.0
|114>     S 1
|115>      1    0.16 1.0
|116>     S 1
|117>      1    0.08 1.0
|118>     S 1
|119>      1    0.04 1.0
|120>     S 1
|121>      1    0.02 1.0
|122>     S 1
|123>      1    0.01 1.0
|124>   end
|125> end
|126>
|127> * xyz 0 3
|128> 40  0.0 0.0 0.0
|129> *
|130>
|131>
|132>                          ****END OF INPUT****

CARTESIAN COORDINATES (ANGSTROEM)
---------------------------------
  Zr     0.000000    0.000000    0.000000

 Total Charge           Charge          ....    0
 Multiplicity           Mult            ....    3
 Number of Electrons    NEL             ....   12
 Basis Dimension        Dim             ....   42

ORBITAL ENERGIES
----------------

  NO   OCC          E(Eh)            E(eV)
   0   2.0000      -2.802153       -76.2504
   1   2.0000      -1.764673       -48.0192
   2   2.0000      -1.764673       -48.0192
   3   2.0000      -1.753775       -47.7226
   4   0.4000      -0.458657       -12.4807
   5   0.4000      -0.439300       -11.9540
   6   0.4000      -0.398897       -10.8545
   7   0.4000      -0.224010        -6.0956
   8   0.4000      -0.224008        -6.0956
   9   2.0000      -0.155950        -4.2436
  10   0.0000      -0.091178        -2.4811
  11   0.0000      -0.079797        -2.1714
  12   0.0000      -0.079796        -2.1714
  13   0.0000       0.070526         1.9191
  14   0.0000       0.070537         1.9194

CleanUpVectors: The p-vectors have cracked symmetry
CleanUpVectors: The p-vectors have cracked symmetry
CleanUpVectors: The p-vectors have cracked symmetry
CleanUpVectors: The d-vectors have cracked symmetry at i=5
CleanUpVectors: The d-vectors have cracked symmetry at i=6
CleanUpVectors: The p-vectors have cracked symmetry
CleanUpVectors: The p-vectors have cracked symmetry
CleanUpVectors: The p-vectors have cracked symmetry
CleanUpVectors: The d-vectors have cracked symmetry at i=10
CleanUpVectors: The d-vectors have cracked symmetry at i=11
CleanUpVectors: The d-vectors have cracked symmetry at i=12
CleanUpVectors: The p-vectors have cracked symmetry
CleanUpVectors: The p-vectors have cracked symmetry
CleanUpVectors: The p-vectors have cracked symmetry
CleanUpVectors: The d-vectors have cracked symmetry at i=17
CleanUpVectors: The d-vectors have cracked symmetry at i=18
CleanUpVectors: The d-vectors have cracked symmetry at i=19
CleanUpVectors: The d-vectors have cracked symmetry at i=20
CleanUpVectors: The d-vectors have cracked symmetry at i=21
CleanUpVectors: The d-vectors have cracked symmetry at i=23
CleanUpVectors: The d-vectors have cracked symmetry at i=24
CleanUpVectors: The d-vectors have cracked symmetry at i=25
CleanUpVectors: The d-vectors have cracked symmetry at i=26
CleanUpVectors: The d-vectors have cracked symmetry at i=27
CleanUpVectors: The p-vectors have cracked symmetry
CleanUpVectors: The p-vectors have cracked symmetry
CleanUpVectors: The p-vectors have cracked symmetry
CleanUpVectors: The d-vectors have cracked symmetry at i=31
CleanUpVectors: The d-vectors have cracked symmetry at i=32
CleanUpVectors: The d-vectors have cracked symmetry at i=33
CleanUpVectors: The d-vectors have cracked symmetry at i=34
CleanUpVectors: The d-vectors have cracked symmetry at i=35
CleanUpVectors: The p-vectors have cracked symmetry
CleanUpVectors: The p-vectors have cracked symmetry
CleanUpVectors: The p-vectors have cracked symmetry
--------------------------
ATOM BASIS FOR ELEMENT Zr
--------------------------
 NewGTO Zr
 S 8
    1         13.000000000000        -0.309938949559
    2         11.750000000000         0.422000521716
    3          3.367908503500        -0.599665344184
    4          0.838132573900         0.794028603242
    5          0.390940818000         0.501591299290
    6          0.121651039600        -0.000474613780
    7          0.068995924000         0.009683305688
    8          0.028131941400        -0.002089426803
 P 23
    1         13.000000000000        -0.000000014581
    2         11.750000000000         0.000000020882
    3          3.367908503500        -0.000000058121
    4          0.838132573900         0.000000262636
    5          8.663996210400        -0.001490064984
    6          4.410956614800         0.008083675375
    7          1.236013387100        -0.011098078765
    8          0.874458205900        -0.012509996689
    9          8.663996210400        -0.035859160519
   10          4.410956614800         0.194537698618
   11          1.236013387100        -0.267080826731
   12          0.874458205900        -0.301059339064
   13          8.663996210400         0.000136322335
   14          4.410956614800        -0.000739555331
   15          1.236013387100         0.001015335592
   16          0.874458205900         0.001144508447
   17          0.477138876400        -0.019785018368
   18          0.477138876400        -0.476135435077
   19          0.477138876400         0.001810076492
   20          0.217648452600        -0.003807196784
   21          0.217648452600        -0.091625673920
   22          0.217648452600         0.000348334908
   23          0.057837163600        -0.000200615494
 S 8
    1         13.000000000000        -0.120522532024
    2         11.750000000000         0.164098676417
    3          3.367908503500        -0.253310599270
    4          0.838132573900         0.447840943943
    5          0.390940818000         0.458843098783
    6          0.121651039600        -0.533752446000
    7          0.068995924000        -0.610724999783
    8          0.028131941400        -0.156861454596
 P 23
    1         13.000000000000         0.000001960357
    2         11.750000000000        -0.000002807533
    3          3.367908503500         0.000008117542
    4          0.838132573900        -0.000026427285
    5          0.390940818000        -0.000055039177
    6          0.121651039600         0.000078675638
    7          0.068995924000         0.000257093711
    8          0.028131941400        -0.000089470252
    9          8.663996210400         0.000002507301
   10          4.410956614800        -0.000013602230
   11          1.236013387100         0.000018674504
   12          0.874458205900         0.000021050308
   13          8.663996210400        -0.000000200329
   14          4.410956614800         0.000001086796
   15          1.236013387100        -0.000001492062
   16          0.874458205900        -0.000001681885
   17          8.663996210400        -0.000031844347
   18          4.410956614800         0.000172757140
   19          1.236013387100        -0.000237178295
   20          0.874458205900        -0.000267352553
   21          0.477138876400         0.000072358164
   22          0.477138876400        -0.000005798037
   23          0.477138876400        -0.000918649530
 S 8
    1         13.000000000000         0.088157770516
    2         11.750000000000        -0.120032106982
    3          3.367908503500         0.201002736305
    4          0.838132573900        -0.042189785034
    5          0.390940818000        -1.921123223742
    6          0.121651039600         7.614286983082
    7          0.068995924000        -7.917262971984
    8          0.028131941400         2.117900970185
 S 8
    1         13.000000000000        -0.531083398037
    2         11.750000000000         0.723101989490
    3          3.367908503500        -1.122281687936
    4          0.838132573900         5.047676983423
    5          0.390940818000        -6.749956438486
    6          0.121651039600         6.666906126436
    7          0.068995924000        -4.856734147898
    8          0.028131941400         1.009145366873
 S 8
    1         13.000000000000        -3.818685981374
    2         11.750000000000         5.199370646072
    3          3.367908503500        -3.037910613600
    4          0.838132573900         2.913568840192
    5          0.390940818000        -2.473808158713
    6          0.121651039600         1.832453455115
    7          0.068995924000        -1.302623250941
    8          0.028131941400         0.274366825817
 S 8
    1         13.000000000000        -4.766474657368
    2         11.750000000000         6.489841935063
    3          3.367908503500        -1.308466663089
    4          0.838132573900         0.946489378901
    5          0.390940818000        -0.775513590857
    6          0.121651039600         0.570627026331
    7          0.068995924000        -0.406524557222
    8          0.028131941400         0.085950702347
 P 23
    1         13.000000000000        -0.000000049154
    2         11.750000000000         0.000000070396
    3          3.367908503500        -0.000000203290
    4          0.838132573900         0.000000764734
    5          0.390940818000         0.000000941116
    6          0.121651039600        -0.000002635402
    7          0.068995924000        -0.000002438110
    8          8.663996210400        -0.000229148754
    9          4.410956614800         0.001243143193
   10          1.236013387100        -0.001706711419
   11          0.874458205900        -0.001923842375
   12          8.663996210400        -0.011354262399
   13          4.410956614800         0.061597428510
   14          1.236013387100        -0.084567116028
   15          0.874458205900        -0.095325899540
   16          8.663996210400         0.000062566718
   17          4.410956614800        -0.000339427505
   18          1.236013387100         0.000466000056
   19          0.874458205900         0.000525285438
   20          0.477138876400        -0.007191840839
   21          0.477138876400        -0.356331662003
   22          0.477138876400         0.001963507982
   23          0.217648452600         0.006905159635
 P 23
    1         13.000000000000         0.000000063941
    2         11.750000000000        -0.000000091573
    3          3.367908503500         0.000000266665
    4          0.838132573900        -0.000000953207
    5          0.390940818000        -0.000001478803
    6          0.121651039600         0.000002513423
    7          0.068995924000         0.000004152397
    8          0.028131941400         0.000007512112
    9          8.663996210400         0.000000060359
   10          4.410956614800        -0.000000327451
   11          1.236013387100         0.000000449557
   12          0.874458205900         0.000000506750
   13          8.663996210400         0.000000007860
   14          4.410956614800        -0.000000042639
   15          1.236013387100         0.000000058539
   16          8.663996210400        -0.000000647501
   17          4.410956614800         0.000003512725
   18          1.236013387100        -0.000004822620
   19          0.874458205900        -0.000005436162
   20          0.477138876400         0.000001637583
   21          0.477138876400         0.000000277362
   22          0.477138876400        -0.000017046444
   23          0.217648452600        -0.000001256264
 P 23
    1         13.000000000000         0.000154285355
    2         11.750000000000        -0.000220960313
    3          3.367908503500         0.000624490548
    4          0.838132573900        -0.003077678272
    5          0.390940818000         0.001245189993
    6          0.121651039600        -0.036929226159
    7          0.068995924000         0.128394995144
    8          0.028131941400        -0.145710640080
    9          8.663996210400        -0.004938536606
   10          4.410956614800         0.026791802483
   11          1.236013387100        -0.036782468425
   12          0.874458205900        -0.041462001480
   13          8.663996210400         0.000111195044
   14          4.410956614800        -0.000603238548
   15          1.236013387100         0.000828186265
   16          0.874458205900         0.000933549640
   17          8.663996210400        -0.000395683140
   18          4.410956614800         0.002146600374
   19          1.236013387100        -0.002947067877
   20          0.874458205900        -0.003321999254
   21          0.477138876400        -0.080410485924
   22          0.477138876400         0.001810499199
   23          0.477138876400        -0.006443474175
 S 23
    1         13.000000000000        -0.000003268840
    2         11.750000000000         0.000004450723
    3          3.367908503500        -0.000006679899
    4          0.838132573900         0.000016571538
    5          0.390940818000        -0.000007020506
    6          0.121651039600         0.000074648814
    7          0.068995924000        -0.000165780914
    8          0.028131941400         0.000098759956
    9          8.663996210400        -0.000000255267
   10          4.410956614800         0.000000988111
   11          1.236013387100        -0.000000718108
   12          0.874458205900        -0.000000680859
   13          0.477138876400        -0.000003385841
   14          0.477138876400         0.000000847985
   15          0.477138876400         0.000030882429
   16          0.217648452600         0.000006537634
   17          0.217648452600        -0.000001481069
   18          0.217648452600        -0.000062909492
   19          0.057837163600        -0.000008845301
   20          0.057837163600         0.000001763703
   21          0.057837163600         0.000090155035
   22          0.020242456600         0.000007883621
   23          0.020242456600        -0.000084143934
 P 23
    1         13.000000000000        -0.000000029741
    2         11.750000000000         0.000000042594
    3          3.367908503500        -0.000000118392
    4          0.838132573900         0.000000574353
    5          0.390940818000        -0.000000397148
    6          0.121651039600         0.000007690670
    7          0.068995924000        -0.000021328628
    8          0.028131941400         0.000018791231
    9          8.663996210400         0.000000010808
   10          4.410956614800        -0.000000058633
   11          1.236013387100         0.000000080498
   12          0.874458205900         0.000000090739
   13          4.410956614800        -0.000000011013
   14          8.663996210400        -0.000000110835
   15          4.410956614800         0.000000601288
   16          1.236013387100        -0.000000825508
   17          0.874458205900        -0.000000930531
   18          0.477138876400         0.000000633968
   19          0.477138876400         0.000000740358
   20          0.477138876400        -0.000001458338
   21          0.217648452600        -0.000001080967
   22          0.217648452600        -0.000001836820
   23          0.217648452600        -0.000002176488
 P 23
    1          8.663996210400        -0.000000388012
    2          4.410956614800         0.000002104984
    3          1.236013387100        -0.000002889933
    4          0.874458205900        -0.000003257596
    5          8.663996210400         0.000000062440
    6          4.410956614800        -0.000000338742
    7          1.236013387100         0.000000465060
    8          0.874458205900         0.000000524225
    9          8.663996210400        -0.000000081673
   10          4.410956614800         0.000000443080
   11          1.236013387100        -0.000000608305
   12          0.874458205900        -0.000000685694
   13          0.477138876400         0.000010338938
   14          0.477138876400         0.000031322896
   15          0.477138876400        -0.000001124884
   16          0.217648452600        -0.000025629446
   17          0.217648452600        -0.000070044724
   18          0.057837163600         0.000155453071
   19          0.057837163600         0.000204215921
   20          0.057837163600         0.000013412807
   21          0.020242456600        -0.000184381682
   22          0.020242456600        -0.000221076046
   23          0.020242456600        -0.000013059148
 S 23
    1         13.000000000000         0.002593294745
    2         11.750000000000        -0.003530926774
    3          3.367908503500         0.007479568460
    4          0.838132573900         0.033641178437
    5          0.390940818000        -0.212952820556
    6          0.121651039600         0.767600980991
    7          0.068995924000        -0.840763563519
    8          0.028131941400         0.256228122369
    9          8.663996210400        -0.000002286848
   10          4.410956614800         0.000008852137
   11          1.236013387100        -0.000006433277
   12          0.874458205900        -0.000006099575
   13          8.663996210400         0.000000040293
   14          4.410956614800        -0.000000155968
   15          8.663996210400         0.000025696251
   16          4.410956614800        -0.000099467384
   17          1.236013387100         0.000072287770
   18          0.874458205900         0.000068538116
   19          0.477138876400        -0.000057967897
   20          0.477138876400         0.000001857518
   21          0.477138876400         0.000666269957
   22          0.217648452600         0.000074590275
   23          0.217648452600        -0.000002392048
 P 23
    1          0.390940818000         0.000000269064
    2          0.121651039600        -0.000001709945
    3          0.068995924000         0.000002461934
    4          8.663996210400        -0.000001672840
    5          4.410956614800         0.000009075238
    6          1.236013387100        -0.000012459395
    7          0.874458205900        -0.000014044502
    8          8.663996210400         0.000000468474
    9          4.410956614800        -0.000002541493
   10          1.236013387100         0.000003489215
   11          0.874458205900         0.000003933120
   12          8.663996210400        -0.000000136240
   13          4.410956614800         0.000000739106
   14          1.236013387100        -0.000001014719
   15          0.874458205900        -0.000001143813
   16          0.477138876400        -0.000134404105
   17          0.477138876400         0.000031115067
   18          0.477138876400        -0.000013537250
   19          0.217648452600         0.000234718227
   20          0.217648452600        -0.000057541278
   21          0.217648452600         0.000024575446
   22          0.057837163600        -0.000172511439
   23          0.057837163600         0.000040328569
 P 23
    1         13.000000000000        -0.000000057173
    2         11.750000000000         0.000000081880
    3          3.367908503500        -0.000000255767
    4          0.838132573900         0.000000437946
    5          0.390940818000         0.000005424817
    6          0.121651039600        -0.000040919056
    7          0.068995924000         0.000055067426
    8          0.028131941400        -0.000021084886
    9          8.663996210400        -0.000515805907
   10          4.410956614800         0.002798272261
   11          1.236013387100        -0.003841748279
   12          0.874458205900        -0.004330502537
   13          8.663996210400        -0.015168162346
   14          4.410956614800         0.082288022148
   15          1.236013387100        -0.112973234193
   16          0.874458205900        -0.127345896126
   17          8.663996210400         0.000066817653
   18          4.410956614800        -0.000362489034
   19          1.236013387100         0.000497661233
   20          0.874458205900         0.000560974607
   21          0.477138876400        -0.040764049983
   22          0.477138876400        -1.198722400162
   23          0.477138876400         0.005280486640
 D 23
    1         13.000000000000        -0.000000001162
    2         11.750000000000         0.000000001751
    3          3.367908503500        -0.000000008132
    4          0.390940818000         0.000000223127
    5          8.663996210400         0.000000000991
    6          4.410956614800        -0.000000007537
    7          8.663996210400         0.000000001299
    8          4.410956614800        -0.000000009879
    9          1.236013387100         0.000000025622
   10          8.663996210400        -0.000000001132
   11          4.410956614800         0.000000008605
   12          0.477138876400         0.000000318417
   13          0.477138876400         0.000000339123
   14          0.477138876400        -0.000000999551
   15          0.217648452600        -0.000000926234
   16          0.217648452600        -0.000001086112
   17          0.217648452600         0.000002097473
   18         14.106535710000        -0.000228948599
   19          5.059747181000         0.001538551182
   20          1.434049031400        -0.019359935378
   21          0.659331290700        -0.041882101469
   22         14.106535710000        -0.005447521364
   23          5.059747181000         0.036607738463
 P 23
    1         13.000000000000        -0.000000003268
    2         11.750000000000         0.000000004681
    3          3.367908503500        -0.000000022202
    4          0.838132573900         0.000000258049
    5          0.390940818000        -0.000000552134
    6          8.663996210400        -0.028752668554
    7          4.410956614800         0.155984632342
    8          1.236013387100        -0.214151318018
    9          0.874458205900        -0.241396041233
   10          8.663996210400        -0.205628210217
   11          4.410956614800         1.115543091563
   12          1.236013387100        -1.531529226802
   13          0.874458205900        -1.726373182315
   14          8.663996210400        -0.000833962816
   15          4.410956614800         0.004524289040
   16          1.236013387100        -0.006211396895
   17          0.874458205900        -0.007001622193
   18          0.477138876400         0.618876821478
   19          0.477138876400         4.425972786344
   20          0.477138876400         0.017950343945
   21          0.217648452600        -0.344675040247
   22          0.217648452600        -2.464985367381
   23          0.217648452600        -0.009997200756
 end
  // -----------------------------------------------
  // The basis set
  // -----------------------------------------------
  BAS[ATNO] = new BFNGauss[NSH];
  // Basis function   1 L = s
  InitBFNGauss(BAS[ATNO][  0]);
  BAS[ATNO][  0].l  = 0;
  BAS[ATNO][  0].ng = 8;
  BAS[ATNO][  0].a[  0] =        13.000000000000;     BAS[ATNO][  0].d[  0] =        -0.309938949559;
  BAS[ATNO][  0].a[  1] =        11.750000000000;     BAS[ATNO][  0].d[  1] =         0.422000521716;
  BAS[ATNO][  0].a[  2] =         3.367908503500;     BAS[ATNO][  0].d[  2] =        -0.599665344184;
  BAS[ATNO][  0].a[  3] =         0.838132573900;     BAS[ATNO][  0].d[  3] =         0.794028603242;
  BAS[ATNO][  0].a[  4] =         0.390940818000;     BAS[ATNO][  0].d[  4] =         0.501591299290;
  BAS[ATNO][  0].a[  5] =         0.121651039600;     BAS[ATNO][  0].d[  5] =        -0.000474613780;
  BAS[ATNO][  0].a[  6] =         0.068995924000;     BAS[ATNO][  0].d[  6] =         0.009683305688;
  BAS[ATNO][  0].a[  7] =         0.028131941400;     BAS[ATNO][  0].d[  7] =        -0.002089426803;

FINAL SINGLE POINT ENERGY       -46.057502580264

DIPOLE MOMENT
-------------
                                X             Y             Z
Electronic contribution:      0.00002      -0.00168       0.00019
Nuclear contribution   :      0.00000       0.00000       0.00000
                        -----------------------------------------
Total Dipole Moment    :      0.00002      -0.00168       0.00019
                        -----------------------------------------
Magnitude (a.u.)       :      0.00169
Magnitude (Debye)      :      0.00430

Rotational constants in cm-1:     0.000000     0.000000     0.000000
Rotational constants in MHz :     0.000000     0.000000     0.000000

                             ****ORCA TERMINATED NORMALLY****
TOTAL RUN TIME: 0 days 0 hours 0 minutes 3 seconds 876 msec
