                         Program Version 4.2.0 -  RELEASE  -
|  1> # input to generate an atomic fitting density for Nb
|  2> # this file is use internally by ORCA
|  3> #
|  4> # atomic ground state (S=4): 1s2 2s2 2p6 3s2 3p6 4s2 3d10 4p6 5s2 4d3
|  5> #
|  6> ! RHF AllowRHF def2-SVP def2/J  NoMulliken NoLoewdin NoMayer NoPrintMOs
|  7>
|  8> %output print[p_atomdensfit] 2 end
|  9>
| 10> %scf
| 11>   guess hcore
| 12>   maxiter 1000
| 13>   maxdisk 500000
| 14>   SCFMode Conventional
| 15>   lshift 0.500000
| 16>   hftyp rohf
| 17>   rohf_case sahf
| 18>   rohf_numop   2
| 19>   rohf_norb[1] 5
| 20>   rohf_nel[1]  3
| 21> end
| 22>
| 23> %basis
| 24>   NewECP 41
| 25>     N_core 28
| 26>     lmax f
| 27>     s 4
| 28>       1       8.9000000000    165.1791435000  2
| 29>       2       4.4300000000     21.9929744000  2
| 30>       3       8.4900000000     22.9295500000  2
| 31>       4       4.2500000000      3.6663099000  2
| 32>     p 4
| 33>       1       7.7700000000    111.7944145000  2
| 34>       2       3.9600000000     16.6334833000  2
| 35>       3       8.4900000000     22.9295500000  2
| 36>       4       4.2500000000      3.6663099000  2
| 37>     d 4
| 38>       1       6.0500000000     38.1122488000  2
| 39>       2       2.8400000000      8.0391673000  2
| 40>       3       8.4900000000     22.9295500000  2
| 41>       4       4.2500000000      3.6663099000  2
| 42>     f 2
| 43>       1       8.4900000000    -22.9295500000  2
| 44>       2       4.2500000000     -3.6663099000  2
| 45>   end
| 46>   NewGTO 41
| 47>     s 2
| 48>      1      13.5000000000     -2.5751240879
| 49>      2      12.2000000000      3.5573814042
| 50>     s 1
| 51>      1       3.7169274051      1.0000000000
| 52>     s 1
| 53>      1       0.9065248806      1.0000000000
| 54>     s 1
| 55>      1       0.4157760605      1.0000000000
| 56>     s 1
| 57>      1       0.1104251130      1.0000000000
| 58>     s 1
| 59>      1       0.0628218213      1.0000000000
| 60>     s 1
| 61>      1       0.0280162900      1.0000000000
| 62>     p 4
| 63>      1       9.3098091725      0.0734223081
| 64>      2       4.8178682975     -0.3808756037
| 65>      3       1.3632838380      0.5477655934
| 66>      4       0.9064752615      0.6169309757
| 67>     p 1
| 68>      1       0.5008956307      1.0000000000
| 69>     p 1
| 70>      1       0.2279327944      1.0000000000
| 71>     p 1
| 72>      1       0.0600000000      1.0000000000
| 73>     p 1
| 74>      1       0.0206000000      1.0000000000
| 75>     d 4
| 76>      1      17.3644044740      0.0035797062
| 77>      2       5.3680385855     -0.0281979346
| 78>      3       1.6586089067      0.3327914775
| 79>      4       0.7812146140      0.7271145846
| 80>     d 1
| 81>      1       0.3487423480      1.0000000000
| 82>     d 1
| 83>      1       0.1484454053      1.0000000000
| 84>     d 1
| 85>      1       0.0593349190      1.0000000000
| 86>   end
| 87>   NewAuxGTO 41
| 88>     S 1
| 89>      1 1310.72 1.0
| 90>     S 1
| 91>      1  655.36 1.0
| 92>     S 1
| 93>      1  327.68 1.0
| 94>     S 1
| 95>      1  163.84 1.0
| 96>     S 1
| 97>      1   81.82 1.0
| 98>     S 1
| 99>      1   40.96 1.0
|100>     S 1
|101>      1   20.48 1.0
|102>     S 1
|103>      1   10.24 1.0
|104>     S 1
|105>      1    5.12 1.0
|106>     S 1
|107>      1    2.56 1.0
|108>     S 1
|109>      1    1.28 1.0
|110>     S 1
|111>      1    0.64 1.0
|112>     S 1
|113>      1    0.32 1.0
|114>     S 1
|115>      1    0.16 1.0
|116>     S 1
|117>      1    0.08 1.0
|118>     S 1
|119>      1    0.04 1.0
|120>     S 1
|121>      1    0.02 1.0
|122>     S 1
|123>      1    0.01 1.0
|124>   end
|125> end
|126>
|127> * xyz 0 4
|128> 41  0.0 0.0 0.0
|129> *
|130>
|131>
|132>                          ****END OF INPUT****

CARTESIAN COORDINATES (ANGSTROEM)
---------------------------------
  Nb     0.000000    0.000000    0.000000

 Total Charge           Charge          ....    0
 Multiplicity           Mult            ....    4
 Number of Electrons    NEL             ....   13
 Basis Dimension        Dim             ....   42

ORBITAL ENERGIES
----------------

  NO   OCC          E(Eh)            E(eV)
   0   2.0000      -2.940679       -80.0199
   1   2.0000      -1.838999       -50.0417
   2   2.0000      -1.838899       -50.0390
   3   2.0000      -1.827056       -49.7167
   4   2.0000      -0.423913       -11.5353
   5   0.6000      -0.414608       -11.2821
   6   0.6000      -0.353695        -9.6245
   7   0.6000      -0.191413        -5.2086
   8   0.6000      -0.191283        -5.2051
   9   0.6000      -0.176374        -4.7994
  10   0.0000      -0.190809        -5.1922
  11   0.0000      -0.163206        -4.4411
  12   0.0000      -0.163014        -4.4358
  13   0.0000      -0.000739        -0.0201
  14   0.0000       0.016033         0.4363

CleanUpVectors: The p-vectors have cracked symmetry
CleanUpVectors: The p-vectors have cracked symmetry
CleanUpVectors: The p-vectors have cracked symmetry
CleanUpVectors: The d-vectors have cracked symmetry at i=4
CleanUpVectors: The d-vectors have cracked symmetry at i=5
CleanUpVectors: The p-vectors have cracked symmetry
CleanUpVectors: The p-vectors have cracked symmetry
CleanUpVectors: The p-vectors have cracked symmetry
CleanUpVectors: The d-vectors have cracked symmetry at i=10
CleanUpVectors: The d-vectors have cracked symmetry at i=11
CleanUpVectors: The d-vectors have cracked symmetry at i=12
CleanUpVectors: The p-vectors have cracked symmetry
CleanUpVectors: The p-vectors have cracked symmetry
CleanUpVectors: The p-vectors have cracked symmetry
CleanUpVectors: The d-vectors have cracked symmetry at i=17
CleanUpVectors: The d-vectors have cracked symmetry at i=18
CleanUpVectors: The d-vectors have cracked symmetry at i=19
CleanUpVectors: The d-vectors have cracked symmetry at i=20
CleanUpVectors: The d-vectors have cracked symmetry at i=21
CleanUpVectors: The p-vectors have cracked symmetry
CleanUpVectors: The p-vectors have cracked symmetry
CleanUpVectors: The d-vectors have cracked symmetry at i=25
CleanUpVectors: The d-vectors have cracked symmetry at i=26
CleanUpVectors: The p-vectors have cracked symmetry
CleanUpVectors: The d-vectors have cracked symmetry at i=28
CleanUpVectors: The d-vectors have cracked symmetry at i=29
CleanUpVectors: The d-vectors have cracked symmetry at i=30
CleanUpVectors: The d-vectors have cracked symmetry at i=32
CleanUpVectors: The d-vectors have cracked symmetry at i=33
CleanUpVectors: The d-vectors have cracked symmetry at i=34
CleanUpVectors: The d-vectors have cracked symmetry at i=35
CleanUpVectors: The d-vectors have cracked symmetry at i=36
CleanUpVectors: The p-vectors have cracked symmetry
CleanUpVectors: The p-vectors have cracked symmetry
CleanUpVectors: The p-vectors have cracked symmetry
--------------------------
ATOM BASIS FOR ELEMENT Nb
--------------------------
 NewGTO Nb
 S 8
    1         13.500000000000        -0.327274604946
    2         12.200000000000         0.452110482432
    3          3.716927405100        -0.614229557690
    4          0.906524880600         0.820557493298
    5          0.415776060500         0.474448481782
    6          0.110425113000         0.008735530889
    7          0.062821821300         0.001626385494
    8          0.028016290000        -0.000723555721
 P 23
    1          9.309809172500         0.016045611007
    2          4.817868297500        -0.083236034623
    3          1.363283838000         0.119707945205
    4          0.906475261500         0.134823253457
    5          9.309809172500        -0.025495439948
    6          4.817868297500         0.132256685102
    7          1.363283838000        -0.190208196305
    8          0.906475261500        -0.214225445238
    9          9.309809172500         0.025252695574
   10          4.817868297500        -0.130997457320
   11          1.363283838000         0.188397206976
   12          0.906475261500         0.212185785525
   13          0.500895630700         0.176544498091
   14          0.500895630700        -0.280517809341
   15          0.500895630700         0.277846974072
   16          0.227932794400         0.036072564764
   17          0.227932794400        -0.057316976481
   18          0.227932794400         0.056771256398
   19          0.060000000000         0.001277205244
   20          0.060000000000        -0.002029396673
   21          0.060000000000         0.002010074605
   22          0.020600000000        -0.000243816480
   23          0.020600000000         0.000387408645
 D 23
    1         13.500000000000         0.000238744970
    2         12.200000000000        -0.000364955941
    3          3.716927405100         0.001767998581
    4          0.906524880600        -0.014579125855
    5          0.415776060500        -0.012919281766
    6          0.110425113000         0.155420302600
    7          0.062821821300         0.041133509463
    8          0.028016290000         0.072221143855
    9         17.364404474000        -0.000559244549
   10          5.368038585500         0.004405261308
   11          1.658608906700        -0.051990808555
   12          0.781214614000        -0.113594480992
   13         17.364404474000         0.000433686651
   14          5.368038585500        -0.003416221090
   15          1.658608906700         0.040318175074
   16          0.781214614000         0.088090997225
   17         17.364404474000         0.001512535370
   18          5.368038585500        -0.011914489920
   19          1.658608906700         0.140614579055
   20          0.781214614000         0.307228153818
   21         17.364404474000         0.000620626939
   22          5.368038585500        -0.004888780490
   23          1.658608906700         0.057697292570
 S 8
    1         13.500000000000        -0.533104964466
    2         12.200000000000         0.736452932885
    3          3.716927405100        -1.079290897310
    4          0.906524880600         4.542269535213
    5          0.415776060500        -5.651545919465
    6          0.110425113000         5.681232948806
    7          0.062821821300        -4.646316473417
    8          0.028016290000         1.122948920808
 S 8
    1         13.500000000000        -3.854252797865
    2         12.200000000000         5.324421954901
    3          3.716927405100        -3.070014777884
    4          0.906524880600         2.650239230658
    5          0.415776060500        -2.051726913850
    6          0.110425113000         1.505988762590
    7          0.062821821300        -1.210963519876
    8          0.028016290000         0.297168963504
 S 8
    1         13.500000000000        -4.670516026019
    2         12.200000000000         6.452041257758
    3          3.716927405100        -1.347519668133
    4          0.906524880600         0.862964965675
    5          0.415776060500        -0.643334353159
    6          0.110425113000         0.468963295587
    7          0.062821821300        -0.377900713739
    8          0.028016290000         0.093026380496
 P 23
    1          9.309809172500         0.004317451502
    2          4.817868297500        -0.022396625627
    3          1.363283838000         0.032210256597
    4          0.906475261500         0.036277388118
    5          9.309809172500        -0.006860151716
    6          4.817868297500         0.035586792268
    7          1.363283838000        -0.051180018343
    8          0.906475261500        -0.057642427771
    9          9.309809172500         0.006794835578
   10          4.817868297500        -0.035247967132
   11          1.363283838000         0.050692728662
   12          0.906475261500         0.057093608893
   13          0.500895630700         0.108736785150
   14          0.500895630700        -0.172775731912
   15          0.500895630700         0.171130718212
   16          0.227932794400        -0.093474296448
   17          0.227932794400         0.148524622661
   18          0.227932794400        -0.147110506013
   19          0.060000000000        -0.331825705729
   20          0.060000000000         0.527249624820
   21          0.060000000000        -0.522229632450
   22          0.020600000000        -0.062983458004
   23          0.020600000000         0.100076648767
 D 23
    1          4.817868297500        -0.000000002809
    2         17.364404474000        -0.000568854554
    3          5.368038585500         0.004480960900
    4          1.658608906700        -0.052884213674
    5          0.781214614000        -0.115546477772
    6         17.364404474000         0.000075581214
    7          5.368038585500        -0.000595365655
    8          1.658608906700         0.007026493922
    9          0.781214614000         0.015352154592
   10         17.364404474000        -0.000758758850
   11          5.368038585500         0.005976868274
   12          1.658608906700        -0.070538883503
   13          0.781214614000        -0.154120085532
   14         17.364404474000         0.001089760733
   15          5.368038585500        -0.008584224559
   16          1.658608906700         0.101310851831
   17          0.781214614000         0.221353619083
   18         17.364404474000        -0.000318017781
   19          5.368038585500         0.002505078377
   20          1.658608906700        -0.029564886446
   21          0.781214614000        -0.064596185842
   22          0.348742348000        -0.141537014838
   23          0.348742348000         0.018805403455
 P 23
    1          9.309809172500        -0.004510518423
    2          4.817868297500         0.023398153395
    3          1.363283838000        -0.033650628327
    4          0.906475261500        -0.037899633012
    5          9.309809172500         0.001141491714
    6          4.817868297500        -0.005921447538
    7          1.363283838000         0.008516075046
    8          0.906475261500         0.009591384619
    9          9.309809172500         0.004018456454
   10          4.817868297500        -0.020845599482
   11          1.363283838000         0.029979610296
   12          0.906475261500         0.033765082097
   13          0.500895630700        -0.044005874643
   14          0.500895630700         0.011136711247
   15          0.500895630700         0.039205180947
   16          0.227932794400        -0.060026876933
   17          0.227932794400         0.015191198922
   18          0.227932794400         0.053478418301
   19          0.060000000000         0.891068839746
   20          0.060000000000        -0.225505718261
   21          0.060000000000        -0.793860260292
   22          0.020600000000        -1.061478502709
   23          0.020600000000         0.268631851429
 D 23
    1         17.364404474000        -0.000338786817
    2          5.368038585500         0.002668679488
    3          1.658608906700        -0.031495703578
    4          0.781214614000        -0.068814819405
    5         17.364404474000         0.000045013121
    6          5.368038585500        -0.000354575759
    7          1.658608906700         0.004184696233
    8          0.781214614000         0.009143123755
    9         17.364404474000        -0.000451886152
   10          5.368038585500         0.003559581554
   11          1.658608906700        -0.042010112492
   12          0.781214614000        -0.091787703589
   13         17.364404474000         0.000649017516
   14          5.368038585500        -0.005112417740
   15          1.658608906700         0.060336655058
   16          0.781214614000         0.131829283034
   17         17.364404474000        -0.000189398557
   18          5.368038585500         0.001491923592
   19          1.658608906700        -0.017607653308
   20          0.781214614000        -0.038470881576
   21          0.348742348000        -0.027586152922
   22          0.348742348000         0.003665251355
   23          0.348742348000        -0.036795411940
 D 23
    1         13.500000000000        -0.000002083104
    2         12.200000000000         0.000003184324
    3          3.716927405100        -0.000015521068
    4          0.906524880600         0.000178041653
    5          0.415776060500        -0.000181693624
    6          0.110425113000        -0.000520475016
    7          0.062821821300        -0.000156897154
    8          0.028016290000         0.000725709041
    9         17.364404474000         0.000117894374
   10          5.368038585500        -0.000928673381
   11          1.658608906700         0.010960185243
   12          0.781214614000         0.023946858855
   13         17.364404474000         0.000685162971
   14          5.368038585500        -0.005397141434
   15          1.658608906700         0.063696958577
   16          0.781214614000         0.139171194899
   17         17.364404474000        -0.000054478676
   18          5.368038585500         0.000429137492
   19          1.658608906700        -0.005064672361
   20          0.781214614000        -0.011065779591
   21         17.364404474000         0.000191243096
   22          5.368038585500        -0.001506453327
   23          1.658608906700         0.017779132960
 D 23
    1         17.364404474000         0.000775596307
    2          5.368038585500        -0.006109499699
    3          1.658608906700         0.072104197010
    4          0.781214614000         0.157540131889
    5         17.364404474000         0.000495136611
    6          5.368038585500        -0.003900272538
    7          1.658608906700         0.046030940878
    8          0.781214614000         0.100572793229
    9         17.364404474000        -0.000069158012
   10          5.368038585500         0.000544769034
   11          1.658608906700        -0.006429353582
   12          0.781214614000        -0.014047465381
   13         17.364404474000         0.000139820550
   14          5.368038585500        -0.001101389474
   15          1.658608906700         0.012998577220
   16          0.781214614000         0.028400532209
   17         17.364404474000        -0.000625541333
   18          5.368038585500         0.004927491985
   19          1.658608906700        -0.058154164884
   20          0.781214614000        -0.127060770185
   21          0.348742348000         0.632204097930
   22          0.348742348000         0.403595777515
   23          0.348742348000        -0.056372081658
 D 23
    1         17.364404474000         0.003528487637
    2          5.368038585500        -0.027794477553
    3          1.658608906700         0.328029885253
    4          0.781214614000         0.716711003371
    5         17.364404474000         0.002252567986
    6          5.368038585500        -0.017743848574
    7          1.658608906700         0.209412556889
    8          0.781214614000         0.457544542476
    9         17.364404474000        -0.000314626549
   10          5.368038585500         0.002478365079
   11          1.658608906700        -0.029249616613
   12          0.781214614000        -0.063907354218
   13         17.364404474000         0.000636097771
   14          5.368038585500        -0.005010646780
   15          1.658608906700         0.059135556164
   16          0.781214614000         0.129205007526
   17         17.364404474000        -0.002845829513
   18          5.368038585500         0.022417067214
   19          1.658608906700        -0.264565792677
   20          0.781214614000        -0.578048596337
   21          0.348742348000        -1.505914003667
   22          0.348742348000        -0.961367595272
   23          0.348742348000         0.134278641183
 end
  // -----------------------------------------------
  // The basis set
  // -----------------------------------------------
  BAS[ATNO] = new BFNGauss[NSH];
  // Basis function   1 L = s
  InitBFNGauss(BAS[ATNO][  0]);
  BAS[ATNO][  0].l  = 0;
  BAS[ATNO][  0].ng = 8;
  BAS[ATNO][  0].a[  0] =        13.500000000000;     BAS[ATNO][  0].d[  0] =        -0.327274604946;
  BAS[ATNO][  0].a[  1] =        12.200000000000;     BAS[ATNO][  0].d[  1] =         0.452110482432;
  BAS[ATNO][  0].a[  2] =         3.716927405100;     BAS[ATNO][  0].d[  2] =        -0.614229557690;
  BAS[ATNO][  0].a[  3] =         0.906524880600;     BAS[ATNO][  0].d[  3] =         0.820557493298;
  BAS[ATNO][  0].a[  4] =         0.415776060500;     BAS[ATNO][  0].d[  4] =         0.474448481782;
  BAS[ATNO][  0].a[  5] =         0.110425113000;     BAS[ATNO][  0].d[  5] =         0.008735530889;
  BAS[ATNO][  0].a[  6] =         0.062821821300;     BAS[ATNO][  0].d[  6] =         0.001626385494;
  BAS[ATNO][  0].a[  7] =         0.028016290000;     BAS[ATNO][  0].d[  7] =        -0.000723555721;

FINAL SINGLE POINT ENERGY       -56.036853247717

DIPOLE MOMENT
-------------
                                X             Y             Z
Electronic contribution:     -0.00000       0.00000       0.00000
Nuclear contribution   :      0.00000       0.00000       0.00000
                        -----------------------------------------
Total Dipole Moment    :     -0.00000       0.00000       0.00000
                        -----------------------------------------
Magnitude (a.u.)       :      0.00000
Magnitude (Debye)      :      0.00000

Rotational constants in cm-1:     0.000000     0.000000     0.000000
Rotational constants in MHz :     0.000000     0.000000     0.000000

                             ****ORCA TERMINATED NORMALLY****
TOTAL RUN TIME: 0 days 0 hours 0 minutes 2 seconds 332 msec
