                         Program Version 4.2.0 -  RELEASE  -
|  1> #
|  2> # 42_Mo CCSD(T)/Def2-QZVPPD
|  3> #
|  4> ! CCSD(T) Def2-QZVPPD tightscf
|  5>
|  6> *xyz 0 7
|  7>  Mo 0.0 0.0 0.0
|  8> *
|  9>
| 10> %maxcore 5000
| 11>
| 12> %pal
| 13> nprocs 24
| 14> end
| 15>
| 16>
| 17>                          ****END OF INPUT****

CARTESIAN COORDINATES (ANGSTROEM)
---------------------------------
  Mo     0.000000    0.000000    0.000000

 Total Charge           Charge          ....    0
 Multiplicity           Mult            ....    7
 Number of Electrons    NEL             ....   14
 Basis Dimension        Dim             ....   81

ORBITAL ENERGIES
----------------
                 SPIN UP ORBITALS
  NO   OCC          E(Eh)            E(eV)
   0   1.0000      -3.050695       -83.0136
   1   1.0000      -1.938542       -52.7504
   2   1.0000      -1.938542       -52.7504
   3   1.0000      -1.938542       -52.7504
   4   1.0000      -0.343397        -9.3443
   5   1.0000      -0.343397        -9.3443
   6   1.0000      -0.343397        -9.3443
   7   1.0000      -0.343397        -9.3443
   8   1.0000      -0.343397        -9.3443
   9   1.0000      -0.239429        -6.5152
  10   0.0000       0.021788         0.5929
  11   0.0000       0.021788         0.5929
  12   0.0000       0.021788         0.5929
  13   0.0000       0.080175         2.1817
  14   0.0000       0.123009         3.3472

                 SPIN DOWN ORBITALS
  NO   OCC          E(Eh)            E(eV)
   0   1.0000      -2.814970       -76.5992
   1   1.0000      -1.627466       -44.2856
   2   1.0000      -1.627466       -44.2856
   3   1.0000      -1.627466       -44.2856
   4   0.0000       0.022266         0.6059
   5   0.0000       0.045606         1.2410
   6   0.0000       0.045606         1.2410
   7   0.0000       0.045606         1.2410
   8   0.0000       0.134492         3.6597

E(0)                                       ...    -67.567715835
E(0)                                       ...    -67.567715835
E(CORR)                                    ...     -0.401576417
E(TOT)                                     ...    -67.969292251
E(CCSD(T))                                 ...    -67.982258146

MULLIKEN ATOMIC CHARGES AND SPIN DENSITIES
------------------------------------------
   0 Mo:   -0.000000    6.000000
Sum of atomic charges       :   -0.0000000

LOEWDIN ATOMIC CHARGES AND SPIN DENSITIES
-----------------------------------------
   0 Mo:   -0.000000    6.000000

FINAL SINGLE POINT ENERGY       -67.982258146261

DIPOLE MOMENT
-------------
                                X             Y             Z
Electronic contribution:     -0.00000      -0.00000      -0.00000
Nuclear contribution   :      0.00000       0.00000       0.00000
                        -----------------------------------------
Total Dipole Moment    :     -0.00000      -0.00000      -0.00000
                        -----------------------------------------
Magnitude (a.u.)       :      0.00000
Magnitude (Debye)      :      0.00000

Rotational constants in cm-1:     0.000000     0.000000     0.000000
Rotational constants in MHz :     0.000000     0.000000     0.000000

                             ****ORCA TERMINATED NORMALLY****
TOTAL RUN TIME: 0 days 0 hours 0 minutes 34 seconds 199 msec
