                         Program Version 4.2.0 -  RELEASE  -
|  1> #
|  2> # 43_Tc CCSD(T)/Def2-QZVPPD
|  3> #
|  4> ! CCSD(T) Def2-QZVPPD tightscf
|  5>
|  6> *xyz 0 6
|  7>  Tc 0.0 0.0 0.0
|  8> *
|  9>
| 10> %maxcore 5000
| 11>
| 12> %pal
| 13> nprocs 24
| 14> end
| 15>
| 16>
| 17>                          ****END OF INPUT****

CARTESIAN COORDINATES (ANGSTROEM)
---------------------------------
  Tc     0.000000    0.000000    0.000000

 Total Charge           Charge          ....    0
 Multiplicity           Mult            ....    6
 Number of Electrons    NEL             ....   15
 Basis Dimension        Dim             ....   88

ORBITAL ENERGIES
----------------
                 SPIN UP ORBITALS
  NO   OCC          E(Eh)            E(eV)
   0   1.0000      -3.317655       -90.2780
   1   1.0000      -2.165209       -58.9183
   2   1.0000      -2.115467       -57.5648
   3   1.0000      -2.115407       -57.5631
   4   1.0000      -0.406985       -11.0746
   5   1.0000      -0.401250       -10.9186
   6   1.0000      -0.401225       -10.9179
   7   1.0000      -0.384420       -10.4606
   8   1.0000      -0.347539        -9.4570
   9   1.0000      -0.239304        -6.5118
  10   0.0000       0.020896         0.5686
  11   0.0000       0.026121         0.7108
  12   0.0000       0.026131         0.7111
  13   0.0000       0.093892         2.5549
  14   0.0000       0.122333         3.3289

                 SPIN DOWN ORBITALS
  NO   OCC          E(Eh)            E(eV)
   0   1.0000      -3.100036       -84.3563
   1   1.0000      -1.866060       -50.7781
   2   1.0000      -1.866020       -50.7770
   3   1.0000      -1.826488       -49.7013
   4   1.0000      -0.250620        -6.8197
   5   0.0000       0.019370         0.5271
   6   0.0000       0.044955         1.2233
   7   0.0000       0.046186         1.2568
   8   0.0000       0.046187         1.2568
   9   0.0000       0.144259         3.9255

E(0)                                       ...    -80.086519304
E(0)                                       ...    -80.086519304
E(CORR)                                    ...     -0.467429244
E(TOT)                                     ...    -80.553948547
E(CCSD(T))                                 ...    -80.570608654

MULLIKEN ATOMIC CHARGES AND SPIN DENSITIES
------------------------------------------
   0 Tc:   -0.000000    5.000000
Sum of atomic charges       :   -0.0000000

LOEWDIN ATOMIC CHARGES AND SPIN DENSITIES
-----------------------------------------
   0 Tc:   -0.000000    5.000000

FINAL SINGLE POINT ENERGY       -80.570608654214

DIPOLE MOMENT
-------------
                                X             Y             Z
Electronic contribution:      0.00000       0.00000      -0.00000
Nuclear contribution   :      0.00000       0.00000       0.00000
                        -----------------------------------------
Total Dipole Moment    :      0.00000       0.00000      -0.00000
                        -----------------------------------------
Magnitude (a.u.)       :      0.00000
Magnitude (Debye)      :      0.00000

Rotational constants in cm-1:     0.000000     0.000000     0.000000
Rotational constants in MHz :     0.000000     0.000000     0.000000

                             ****ORCA TERMINATED NORMALLY****
TOTAL RUN TIME: 0 days 0 hours 0 minutes 24 seconds 520 msec
