                         Program Version 4.2.0 -  RELEASE  -
|  1> #
|  2> # 44_Ru CCSD(T)/Def2-QZVPPD
|  3> #
|  4> ! CCSD(T) Def2-QZVPPD tightscf veryslowconv kdiis
|  5>
|  6> *xyz 0 5
|  7>  Ru 0.0 0.0 0.0
|  8> *
|  9>
| 10> %maxcore 5000
| 11>
| 12> %pal
| 13> nprocs 24
| 14> end
| 15>
| 16>
| 17>                          ****END OF INPUT****

CARTESIAN COORDINATES (ANGSTROEM)
---------------------------------
  Ru     0.000000    0.000000    0.000000

 Total Charge           Charge          ....    0
 Multiplicity           Mult            ....    5
 Number of Electrons    NEL             ....   16
 Basis Dimension        Dim             ....   88

ORBITAL ENERGIES
----------------
                 SPIN UP ORBITALS
  NO   OCC          E(Eh)            E(eV)
   0   1.0000      -3.583736       -97.5184
   1   1.0000      -2.320086       -63.1327
   2   1.0000      -2.320086       -63.1327
   3   1.0000      -2.265124       -61.6372
   4   1.0000      -0.453604       -12.3432
   5   1.0000      -0.453604       -12.3432
   6   1.0000      -0.429766       -11.6945
   7   1.0000      -0.395431       -10.7602
   8   1.0000      -0.395431       -10.7602
   9   1.0000      -0.239079        -6.5057
  10   0.0000       0.025364         0.6902
  11   0.0000       0.025364         0.6902
  12   0.0000       0.029699         0.8081
  13   0.0000       0.102359         2.7853
  14   0.0000       0.131599         3.5810

                 SPIN DOWN ORBITALS
  NO   OCC          E(Eh)            E(eV)
   0   1.0000      -3.400958       -92.5448
   1   1.0000      -2.102892       -57.2226
   2   1.0000      -2.057884       -55.9979
   3   1.0000      -2.057884       -55.9979
   4   1.0000      -0.320871        -8.7313
   5   1.0000      -0.320871        -8.7313
   6   0.0000       0.016620         0.4523
   7   0.0000       0.046158         1.2560
   8   0.0000       0.046158         1.2560
   9   0.0000       0.047356         1.2886
  10   0.0000       0.148716         4.0468

E(0)                                       ...    -94.115151299
E(0)                                       ...    -94.115151299
E(CORR)                                    ...     -0.528396453
E(TOT)                                     ...    -94.643547752
E(CCSD(T))                                 ...    -94.663379840

MULLIKEN ATOMIC CHARGES AND SPIN DENSITIES
------------------------------------------
   0 Ru:   -0.000000    4.000000
Sum of atomic charges       :   -0.0000000

LOEWDIN ATOMIC CHARGES AND SPIN DENSITIES
-----------------------------------------
   0 Ru:   -0.000000    4.000000

FINAL SINGLE POINT ENERGY       -94.663379839729

DIPOLE MOMENT
-------------
                                X             Y             Z
Electronic contribution:     -0.00000      -0.00000       0.00000
Nuclear contribution   :      0.00000       0.00000       0.00000
                        -----------------------------------------
Total Dipole Moment    :     -0.00000      -0.00000       0.00000
                        -----------------------------------------
Magnitude (a.u.)       :      0.00000
Magnitude (Debye)      :      0.00000

Rotational constants in cm-1:     0.000000     0.000000     0.000000
Rotational constants in MHz :     0.000000     0.000000     0.000000

                             ****ORCA TERMINATED NORMALLY****
TOTAL RUN TIME: 0 days 0 hours 0 minutes 20 seconds 144 msec
