                         Program Version 4.2.0 -  RELEASE  -
|  1> # input to generate an atomic fitting density for Ru
|  2> # this file is use internally by ORCA
|  3> #
|  4> # atomic ground state (S=5): 1s2 2s2 2p6 3s2 3p6 4s2 3d10 4p6 5s2 4d6
|  5> #
|  6> ! RHF AllowRHF def2-SVP def2/J  NoMulliken NoLoewdin NoMayer NoPrintMOs
|  7>
|  8> %output print[p_atomdensfit] 2 end
|  9>
| 10> %scf
| 11>   guess hcore
| 12>   maxiter 1000
| 13>   maxdisk 500000
| 14>   SCFMode Conventional
| 15>   lshift 1.000000
| 16>   hftyp rohf
| 17>   rohf_case sahf
| 18>   rohf_numop   2
| 19>   rohf_norb[1] 5
| 20>   rohf_nel[1]  6
| 21> end
| 22>
| 23> %basis
| 24>   NewECP 44
| 25>     N_core 28
| 26>     lmax f
| 27>     s 4
| 28>       1      11.1052693000    209.8229712000  2
| 29>       2       5.4147454000     30.6547264000  2
| 30>       3      11.3600000000     28.3406163000  2
| 31>       4       5.6800000000      4.9446292000  2
| 32>     p 4
| 33>       1       9.7712707000    146.3361823000  2
| 34>       2       5.0739908000     24.1278772000  2
| 35>       3      11.3600000000     28.3406163000  2
| 36>       4       5.6800000000      4.9446292000  2
| 37>     d 4
| 38>       1       7.6714231000     67.5158967000  2
| 39>       2       4.1365647000      9.8701041000  2
| 40>       3      11.3600000000     28.3406163000  2
| 41>       4       5.6800000000      4.9446292000  2
| 42>     f 2
| 43>       1      11.3600000000    -28.3406163000  2
| 44>       2       5.6800000000     -4.9446292000  2
| 45>   end
| 46>   NewGTO 44
| 47>     s 3
| 48>      1      15.0000000000      5.0186769174
| 49>      2      13.5000000000     -7.4167472314
| 50>      3       7.2130868530      1.5654342808
| 51>     s 1
| 52>      1       4.5405901225      1.0000000000
| 53>     s 1
| 54>      1       1.1904973723      1.0000000000
| 55>     s 1
| 56>      1       0.5430753159      1.0000000000
| 57>     s 1
| 58>      1       0.1370056304      1.0000000000
| 59>     s 1
| 60>      1       0.0733963750      1.0000000000
| 61>     s 1
| 62>      1       0.0312507155      1.0000000000
| 63>     p 4
| 64>      1      11.3881000610      0.0748913524
| 65>      2       6.1591005666     -0.3459421738
| 66>      3       1.7320431063      0.5753664197
| 67>      4       1.0194857402      0.5805818381
| 68>     p 1
| 69>      1       0.5813141911      1.0000000000
| 70>     p 1
| 71>      1       0.2729053027      1.0000000000
| 72>     p 1
| 73>      1       0.0660000000      1.0000000000
| 74>     p 1
| 75>      1       0.0220000000      1.0000000000
| 76>     d 4
| 77>      1      18.5982477780      0.0052341166
| 78>      2       6.7883773752     -0.0573074377
| 79>      3       2.2470797667      0.3600648700
| 80>      4       1.0884195428      0.7104599746
| 81>     d 1
| 82>      1       0.4978789289      1.0000000000
| 83>     d 1
| 84>      1       0.2148196827      1.0000000000
| 85>     d 1
| 86>      1       0.0856667512      1.0000000000
| 87>   end
| 88>   NewAuxGTO 44
| 89>     S 1
| 90>      1 1310.72 1.0
| 91>     S 1
| 92>      1  655.36 1.0
| 93>     S 1
| 94>      1  327.68 1.0
| 95>     S 1
| 96>      1  163.84 1.0
| 97>     S 1
| 98>      1   81.82 1.0
| 99>     S 1
|100>      1   40.96 1.0
|101>     S 1
|102>      1   20.48 1.0
|103>     S 1
|104>      1   10.24 1.0
|105>     S 1
|106>      1    5.12 1.0
|107>     S 1
|108>      1    2.56 1.0
|109>     S 1
|110>      1    1.28 1.0
|111>     S 1
|112>      1    0.64 1.0
|113>     S 1
|114>      1    0.32 1.0
|115>     S 1
|116>      1    0.16 1.0
|117>     S 1
|118>      1    0.08 1.0
|119>     S 1
|120>      1    0.04 1.0
|121>     S 1
|122>      1    0.02 1.0
|123>     S 1
|124>      1    0.01 1.0
|125>   end
|126> end
|127>
|128> * xyz 0 5
|129> 44  0.0 0.0 0.0
|130> *
|131>
|132>
|133>                          ****END OF INPUT****

CARTESIAN COORDINATES (ANGSTROEM)
---------------------------------
  Ru     0.000000    0.000000    0.000000

 Total Charge           Charge          ....    0
 Multiplicity           Mult            ....    5
 Number of Electrons    NEL             ....   16
 Basis Dimension        Dim             ....   42

ORBITAL ENERGIES
----------------

  NO   OCC          E(Eh)            E(eV)
   0   2.0000      -3.760465      -102.3274
   1   2.0000      -2.439664       -66.3866
   2   2.0000      -2.439313       -66.3771
   3   2.0000      -2.425169       -65.9922
   4   2.0000      -0.615083       -16.7373
   5   1.2000      -0.615884       -16.7591
   6   1.2000      -0.615105       -16.7379
   7   1.2000      -0.608184       -16.5495
   8   1.2000      -0.360861        -9.8195
   9   1.2000      -0.175737        -4.7821
  10   0.0000      -0.174324        -4.7436
  11   0.0000      -0.023566        -0.6413
  12   0.0000      -0.023333        -0.6349
  13   0.0000       0.054648         1.4870
  14   0.0000       0.067846         1.8462

CleanUpVectors: The p-vectors have cracked symmetry
CleanUpVectors: The p-vectors have cracked symmetry
CleanUpVectors: The p-vectors have cracked symmetry
CleanUpVectors: The d-vectors have cracked symmetry at i=4
CleanUpVectors: The d-vectors have cracked symmetry at i=5
CleanUpVectors: The d-vectors have cracked symmetry at i=6
CleanUpVectors: The d-vectors have cracked symmetry at i=7
CleanUpVectors: The p-vectors have cracked symmetry
CleanUpVectors: The d-vectors have cracked symmetry at i=10
CleanUpVectors: The p-vectors have cracked symmetry
CleanUpVectors: The p-vectors have cracked symmetry
CleanUpVectors: The p-vectors have cracked symmetry
CleanUpVectors: The p-vectors have cracked symmetry
CleanUpVectors: The p-vectors have cracked symmetry
CleanUpVectors: The d-vectors have cracked symmetry at i=17
CleanUpVectors: The d-vectors have cracked symmetry at i=18
CleanUpVectors: The d-vectors have cracked symmetry at i=19
CleanUpVectors: The d-vectors have cracked symmetry at i=20
CleanUpVectors: The d-vectors have cracked symmetry at i=21
CleanUpVectors: The p-vectors have cracked symmetry
CleanUpVectors: The p-vectors have cracked symmetry
CleanUpVectors: The p-vectors have cracked symmetry
CleanUpVectors: The d-vectors have cracked symmetry at i=26
CleanUpVectors: The d-vectors have cracked symmetry at i=27
CleanUpVectors: The d-vectors have cracked symmetry at i=28
CleanUpVectors: The d-vectors have cracked symmetry at i=29
CleanUpVectors: The d-vectors have cracked symmetry at i=30
CleanUpVectors: The d-vectors have cracked symmetry at i=32
CleanUpVectors: The d-vectors have cracked symmetry at i=33
CleanUpVectors: The d-vectors have cracked symmetry at i=34
CleanUpVectors: The d-vectors have cracked symmetry at i=35
CleanUpVectors: The d-vectors have cracked symmetry at i=36
CleanUpVectors: The p-vectors have cracked symmetry
CleanUpVectors: The p-vectors have cracked symmetry
CleanUpVectors: The p-vectors have cracked symmetry
--------------------------
ATOM BASIS FOR ELEMENT Ru
--------------------------
 NewGTO Ru
 S 9
    1         15.000000000000        -0.406758067201
    2         13.500000000000         0.601118943979
    3          7.213086853000        -0.126876671455
    4          4.540590122500        -0.585345679016
    5          1.190497372300         0.845617096443
    6          0.543075315900         0.472610174739
    7          0.137005630400         0.012831781297
    8          0.073396375000        -0.001994947091
    9          0.031250715500         0.000128061072
 P 24
    1         11.388100061000        -0.004588038565
    2          6.159100566600         0.021193315165
    3          1.732043106300        -0.035248439744
    4          1.019485740200        -0.035567949807
    5         11.388100061000         0.033763677494
    6          6.159100566600        -0.155962999914
    7          1.732043106300         0.259395585917
    8          1.019485740200         0.261746881483
    9         11.388100061000        -0.035822067472
   10          6.159100566600         0.165471225903
   11          1.732043106300        -0.275209540848
   12          1.019485740200        -0.277704182269
   13          0.581314191100        -0.030355736147
   14          0.581314191100         0.223389858419
   15          0.581314191100        -0.237008737632
   16          0.272905302700        -0.006000466228
   17          0.272905302700         0.044157825545
   18          0.272905302700        -0.046849890872
   19          0.066000000000        -0.000220685188
   20          0.066000000000         0.001624036809
   21          0.066000000000        -0.001723045606
   22          0.022000000000         0.000051979765
   23          0.022000000000        -0.000382522507
   24          0.022000000000         0.000405842848
 D 24
    1         15.000000000000        -0.000004013460
    2         13.500000000000         0.000006590231
    3          7.213086853000        -0.000002603362
    4          4.540590122500        -0.000021176633
    5          1.190497372300         0.000157814260
    6          0.543075315900         0.000318636785
    7          0.137005630400        -0.002403858448
    8          0.073396375000        -0.002726002493
    9          0.031250715500        -0.002144790706
   10         18.598247778000         0.000056521914
   11          6.788377375200        -0.000618848660
   12          2.247079766700         0.003888250306
   13          1.088419542800         0.007672079239
   14         18.598247778000        -0.000280828018
   15          6.788377375200         0.003074737413
   16          2.247079766700        -0.019318695294
   17          1.088419542800        -0.038118575044
   18         18.598247778000         0.000090675407
   19          6.788377375200        -0.000992789353
   20          2.247079766700         0.006237734290
   21          1.088419542800         0.012307950358
   22         18.598247778000        -0.000181594557
   23          6.788377375200         0.001988247413
   24          2.247079766700        -0.012492236175
 S 9
    1         15.000000000000         0.107359169420
    2         13.500000000000        -0.158658514119
    3          7.213086853000         0.033487655598
    4          4.540590122500         0.182971061414
    5          1.190497372300        -0.130874073608
    6          0.543075315900        -1.283274920088
    7          0.137005630400         5.981866174828
    8          0.073396375000        -6.793859779984
    9          0.031250715500         2.093421595822
 S 9
    1         15.000000000000        -0.649925118389
    2         13.500000000000         0.960478309674
    3          7.213086853000        -0.202725753625
    4          4.540590122500        -1.039890396714
    5          1.190497372300         4.495023155734
    6          0.543075315900        -5.308248481829
    7          0.137005630400         4.679139589690
    8          0.073396375000        -3.688830691351
    9          0.031250715500         0.926680050106
 S 9
    1         15.000000000000        -4.748780027164
    2         13.500000000000         7.017885729381
    3          7.213086853000        -1.481247581554
    4          4.540590122500        -2.395307874513
    5          1.190497372300         2.570840975642
    6          0.543075315900        -1.877308453443
    7          0.137005630400         1.191431468670
    8          0.073396375000        -0.925630958217
    9          0.031250715500         0.236348400400
 S 9
    1         15.000000000000        -5.903771930390
    2         13.500000000000         8.724766475348
    3          7.213086853000        -1.841514629845
    4          4.540590122500        -0.475154314576
    5          1.190497372300         0.704897677309
    6          0.543075315900        -0.506042806683
    7          0.137005630400         0.322172024464
    8          0.073396375000        -0.251233332135
    9          0.031250715500         0.064399657818
 D 24
    1         15.000000000000         0.000194083133
    2         13.500000000000        -0.000318690799
    3          7.213086853000         0.000125893554
    4          4.540590122500         0.000956892138
    5          1.190497372300        -0.006317063396
    6          0.543075315900        -0.008847419848
    7          0.137005630400         0.071630169595
    8          0.073396375000        -0.017361566564
    9          0.031250715500         0.017801796363
   10         18.598247778000        -0.002799790417
   11          6.788377375200         0.030654421200
   12          2.247079766700        -0.192602926030
   13          1.088419542800        -0.380033381028
   14         18.598247778000        -0.000142200023
   15          6.788377375200         0.001556923466
   16          2.247079766700        -0.009782210961
   17          1.088419542800        -0.019301714580
   18         18.598247778000         0.000495972192
   19          6.788377375200        -0.005430313780
   20          2.247079766700         0.034118873638
   21          1.088419542800         0.067321463763
   22         18.598247778000         0.000020441350
   23          6.788377375200        -0.000223808809
   24          2.247079766700         0.001406199494
 P 24
    1         11.388100061000        -0.006982192049
    2          6.159100566600         0.032252518053
    3          1.732043106300        -0.053641958813
    4          1.019485740200        -0.054128197233
    5         11.388100061000        -0.000197604807
    6          6.159100566600         0.000912786781
    7          1.732043106300        -0.001518134828
    8          1.019485740200        -0.001531895986
    9         11.388100061000         0.000708018917
   10          6.159100566600        -0.003270519163
   11          1.732043106300         0.005439483948
   12          1.019485740200         0.005488790240
   13          0.581314191100        -0.042290491830
   14          0.581314191100        -0.001196874050
   15          0.581314191100         0.004288405132
   16          0.272905302700        -0.023512214842
   17          0.272905302700        -0.000665425220
   18          0.272905302700         0.002384221569
   19          0.066000000000         1.094680336413
   20          0.066000000000         0.030980828823
   21          0.066000000000        -0.111004449692
   22          0.022000000000        -1.398287758475
   23          0.022000000000        -0.039573300305
   24          0.022000000000         0.141791313845
 D 24
    1         15.000000000000         0.000001345279
    2         13.500000000000        -0.000002208991
    3          7.213086853000         0.000000872626
    4          4.540590122500         0.000007226968
    5          1.190497372300        -0.000046214233
    6          0.543075315900        -0.000162643943
    7          0.137005630400         0.002915824045
    8          0.073396375000        -0.005535511952
    9          0.031250715500         0.005138122268
   10         18.598247778000         0.000002766670
   11          6.788377375200        -0.000030291796
   12          2.247079766700         0.000190324535
   13          1.088419542800         0.000375537786
   14         18.598247778000        -0.000086945002
   15          6.788377375200         0.000951945797
   16          2.247079766700        -0.005981112636
   17          1.088419542800        -0.011801598782
   18         18.598247778000         0.000030417579
   19          6.788377375200        -0.000333036815
   20          2.247079766700         0.002092483323
   21          1.088419542800         0.004128771708
   22         18.598247778000        -0.000055636658
   23          6.788377375200         0.000609156147
   24          2.247079766700        -0.003827351871
 P 24
    1         11.388100061000        -0.001711785981
    2          6.159100566600         0.007907174118
    3          1.732043106300        -0.013151106765
    4          1.019485740200        -0.013270315189
    5         11.388100061000         0.012597145598
    6          6.159100566600        -0.058189414294
    7          1.732043106300         0.096779859476
    8          1.019485740200         0.097657122108
    9         11.388100061000        -0.013365125869
   10          6.159100566600         0.061736910177
   11          1.732043106300        -0.102680007418
   12          1.019485740200        -0.103610752038
   13          0.581314191100        -0.102134486389
   14          0.581314191100         0.751614401501
   15          0.581314191100        -0.797436292423
   16          0.272905302700         0.204221935279
   17          0.272905302700        -1.502882650958
   18          0.272905302700         1.594505329773
   19          0.066000000000        -0.120623295970
   20          0.066000000000         0.887674767001
   21          0.066000000000        -0.941791527227
   22          0.022000000000         0.047609941943
   23          0.022000000000        -0.350364693496
   24          0.022000000000         0.371724546016
 D 24
    1         15.000000000000         0.000003061700
    2         13.500000000000        -0.000005027411
    3          7.213086853000         0.000001985996
    4          4.540590122500         0.000016416629
    5          1.190497372300        -0.000160239567
    6          0.543075315900        -0.000002404617
    7          0.137005630400         0.003027418948
    8          0.073396375000        -0.004758674213
    9          0.031250715500         0.002308767094
   10         18.598247778000         0.000004337461
   11          6.788377375200        -0.000047490112
   12          2.247079766700         0.000298382228
   13          1.088419542800         0.000588751215
   14         18.598247778000        -0.000142418463
   15          6.788377375200         0.001559315125
   16          2.247079766700        -0.009797237854
   17          1.088419542800        -0.019331364809
   18         18.598247778000         0.000049855824
   19          6.788377375200        -0.000545862793
   20          2.247079766700         0.003429677256
   21          1.088419542800         0.006767248403
   22         18.598247778000        -0.000091126751
   23          6.788377375200         0.000997731038
   24          2.247079766700        -0.006268783091
 D 24
    1         15.000000000000         0.000012569096
    2         13.500000000000        -0.000020638864
    3          7.213086853000         0.000008153043
    4          4.540590122500         0.000068763791
    5          1.190497372300        -0.001093416756
    6          0.543075315900         0.002649724102
    7          0.137005630400        -0.007857906099
    8          0.073396375000         0.010958230412
    9          0.031250715500        -0.006173109572
   10         18.598247778000        -0.000015337425
   11          6.788377375200         0.000167926818
   12          2.247079766700        -0.001055090755
   13          1.088419542800        -0.002081846394
   14         18.598247778000        -0.000747219849
   15          6.788377375200         0.008181180937
   16          2.247079766700        -0.051402679454
   17          1.088419542800        -0.101424908071
   18         18.598247778000         0.000267637686
   19          6.788377375200        -0.002930318756
   20          2.247079766700         0.018411307229
   21          1.088419542800         0.036328167383
   22         18.598247778000        -0.000476596403
   23          6.788377375200         0.005218171618
   24          2.247079766700        -0.032785976142
 P 24
    1         11.388100061000        -0.017786788135
    2          6.159100566600         0.082161690970
    3          1.732043106300        -0.136650231022
    4          1.019485740200        -0.137888899295
    5         11.388100061000         0.130894143499
    6          6.159100566600        -0.604633286601
    7          1.732043106300         1.005618035875
    8          1.019485740200         1.014733477145
    9         11.388100061000        -0.138874056025
   10          6.159100566600         0.641494528887
   11          1.732043106300        -1.066925163499
   12          1.019485740200        -1.076596324239
   13          0.581314191100         0.399245583264
   14          0.581314191100        -2.938074500643
   15          0.581314191100         3.117193114227
   16          0.272905302700        -0.227467268972
   17          0.272905302700         1.673946590047
   18          0.272905302700        -1.775998118133
   19          0.066000000000         0.061656275413
   20          0.066000000000        -0.453732585127
   21          0.066000000000         0.481394222559
   22          0.022000000000        -0.022697028518
   23          0.022000000000         0.167028925361
   24          0.022000000000        -0.177211781354
 end
  // -----------------------------------------------
  // The basis set
  // -----------------------------------------------
  BAS[ATNO] = new BFNGauss[NSH];
  // Basis function   1 L = s
  InitBFNGauss(BAS[ATNO][  0]);
  BAS[ATNO][  0].l  = 0;
  BAS[ATNO][  0].ng = 9;
  BAS[ATNO][  0].a[  0] =        15.000000000000;     BAS[ATNO][  0].d[  0] =        -0.406758067201;
  BAS[ATNO][  0].a[  1] =        13.500000000000;     BAS[ATNO][  0].d[  1] =         0.601118943979;
  BAS[ATNO][  0].a[  2] =         7.213086853000;     BAS[ATNO][  0].d[  2] =        -0.126876671455;
  BAS[ATNO][  0].a[  3] =         4.540590122500;     BAS[ATNO][  0].d[  3] =        -0.585345679016;
  BAS[ATNO][  0].a[  4] =         1.190497372300;     BAS[ATNO][  0].d[  4] =         0.845617096443;
  BAS[ATNO][  0].a[  5] =         0.543075315900;     BAS[ATNO][  0].d[  5] =         0.472610174739;
  BAS[ATNO][  0].a[  6] =         0.137005630400;     BAS[ATNO][  0].d[  6] =         0.012831781297;
  BAS[ATNO][  0].a[  7] =         0.073396375000;     BAS[ATNO][  0].d[  7] =        -0.001994947091;
  BAS[ATNO][  0].a[  8] =         0.031250715500;     BAS[ATNO][  0].d[  8] =         0.000128061072;

FINAL SINGLE POINT ENERGY       -93.831468299327

DIPOLE MOMENT
-------------
                                X             Y             Z
Electronic contribution:      0.00000      -0.00000       0.00000
Nuclear contribution   :      0.00000       0.00000       0.00000
                        -----------------------------------------
Total Dipole Moment    :      0.00000      -0.00000       0.00000
                        -----------------------------------------
Magnitude (a.u.)       :      0.00000
Magnitude (Debye)      :      0.00000

Rotational constants in cm-1:     0.000000     0.000000     0.000000
Rotational constants in MHz :     0.000000     0.000000     0.000000

                             ****ORCA TERMINATED NORMALLY****
TOTAL RUN TIME: 0 days 0 hours 0 minutes 1 seconds 885 msec
