                         Program Version 4.2.0 -  RELEASE  -
|  1> # input to generate an atomic fitting density for Rh
|  2> # this file is use internally by ORCA
|  3> #
|  4> # atomic ground state (S=4): 1s2 2s2 2p6 3s2 3p6 4s2 3d10 4p6 5s2 4d7
|  5> #
|  6> ! RHF AllowRHF def2-SVP def2/J  NoMulliken NoLoewdin NoMayer NoPrintMOs
|  7>
|  8> %output print[p_atomdensfit] 2 end
|  9>
| 10> %scf
| 11>   guess hcore
| 12>   maxiter 1000
| 13>   maxdisk 500000
| 14>   SCFMode Conventional
| 15>   lshift 1.000000
| 16>   hftyp rohf
| 17>   rohf_case sahf
| 18>   rohf_numop   2
| 19>   rohf_norb[1] 5
| 20>   rohf_nel[1]  7
| 21> end
| 22>
| 23> %basis
| 24>   NewECP 45
| 25>     N_core 28
| 26>     lmax f
| 27>     s 4
| 28>       1      11.7200000000    225.3477535000  2
| 29>       2       5.8200000000     32.8231890000  2
| 30>       3      12.3100000000     30.0934557000  2
| 31>       4       6.1600000000      5.2184819000  2
| 32>     p 4
| 33>       1      10.4200000000    158.7094116000  2
| 34>       2       5.4500000000     26.4441005000  2
| 35>       3      12.3100000000     30.0934557000  2
| 36>       4       6.1600000000      5.2184819000  2
| 37>     d 4
| 38>       1       8.8200000000     62.7586257000  2
| 39>       2       3.8700000000     10.9787195000  2
| 40>       3      12.3100000000     30.0934557000  2
| 41>       4       6.1600000000      5.2184819000  2
| 42>     f 2
| 43>       1      12.3100000000    -30.0934557000  2
| 44>       2       6.1600000000     -5.2184819000  2
| 45>   end
| 46>   NewGTO 45
| 47>     s 3
| 48>      1      15.0000000000      5.8556062898
| 49>      2      13.5000000000     -8.9053017685
| 50>      3       7.4051116103      3.6287624924
| 51>     s 1
| 52>      1       4.5131696431      1.0000000000
| 53>     s 1
| 54>      1       1.3235977422      1.0000000000
| 55>     s 1
| 56>      1       0.6095414454      1.0000000000
| 57>     s 1
| 58>      1       0.1890719277      1.0000000000
| 59>     s 1
| 60>      1       0.0890804508      1.0000000000
| 61>     s 1
| 62>      1       0.0341315675      1.0000000000
| 63>     p 4
| 64>      1      11.8394252780      0.0803120586
| 65>      2       6.6953652636     -0.3323772429
| 66>      3       1.8333616287      0.5774416775
| 67>      4       1.0267931770      0.5715353508
| 68>     p 1
| 69>      1       0.5807176702      1.0000000000
| 70>     p 1
| 71>      1       0.2790775327      1.0000000000
| 72>     p 1
| 73>      1       0.0671089546      1.0000000000
| 74>     p 1
| 75>      1       0.0221015422      1.0000000000
| 76>     d 4
| 77>      1      26.3411671760      0.0040821328
| 78>      2       7.8709462705     -0.0341233984
| 79>      3       2.5989970939      0.3421348116
| 80>      4       1.2613435752      0.7181652049
| 81>     d 1
| 82>      1       0.5757840798      1.0000000000
| 83>     d 1
| 84>      1       0.2472517490      1.0000000000
| 85>     d 1
| 86>      1       0.0975312103      1.0000000000
| 87>   end
| 88>   NewAuxGTO 45
| 89>     S 1
| 90>      1 1310.72 1.0
| 91>     S 1
| 92>      1  655.36 1.0
| 93>     S 1
| 94>      1  327.68 1.0
| 95>     S 1
| 96>      1  163.84 1.0
| 97>     S 1
| 98>      1   81.82 1.0
| 99>     S 1
|100>      1   40.96 1.0
|101>     S 1
|102>      1   20.48 1.0
|103>     S 1
|104>      1   10.24 1.0
|105>     S 1
|106>      1    5.12 1.0
|107>     S 1
|108>      1    2.56 1.0
|109>     S 1
|110>      1    1.28 1.0
|111>     S 1
|112>      1    0.64 1.0
|113>     S 1
|114>      1    0.32 1.0
|115>     S 1
|116>      1    0.16 1.0
|117>     S 1
|118>      1    0.08 1.0
|119>     S 1
|120>      1    0.04 1.0
|121>     S 1
|122>      1    0.02 1.0
|123>     S 1
|124>      1    0.01 1.0
|125>   end
|126> end
|127>
|128> * xyz 0 4
|129> 45  0.0 0.0 0.0
|130> *
|131>
|132>
|133>                          ****END OF INPUT****

CARTESIAN COORDINATES (ANGSTROEM)
---------------------------------
  Rh     0.000000    0.000000    0.000000

 Total Charge           Charge          ....    0
 Multiplicity           Mult            ....    4
 Number of Electrons    NEL             ....   17
 Basis Dimension        Dim             ....   42

ORBITAL ENERGIES
----------------

  NO   OCC          E(Eh)            E(eV)
   0   2.0000      -3.821672      -103.9930
   1   2.0000      -2.429120       -66.0997
   2   2.0000      -2.422554       -65.9211
   3   2.0000      -2.422387       -65.9165
   4   2.0000      -0.453378       -12.3370
   5   1.4000      -0.489782       -13.3276
   6   1.4000      -0.483897       -13.1675
   7   1.4000      -0.483440       -13.1551
   8   1.4000      -0.465538       -12.6679
   9   1.4000      -0.255299        -6.9470
  10   0.0000      -0.002255        -0.0614
  11   0.0000       0.000144         0.0039
  12   0.0000       0.000203         0.0055
  13   0.0000       0.088416         2.4059
  14   0.0000       0.092193         2.5087

CleanUpVectors: The p-vectors have cracked symmetry
CleanUpVectors: The p-vectors have cracked symmetry
CleanUpVectors: The p-vectors have cracked symmetry
CleanUpVectors: The d-vectors have cracked symmetry at i=4
CleanUpVectors: The d-vectors have cracked symmetry at i=5
CleanUpVectors: The d-vectors have cracked symmetry at i=6
CleanUpVectors: The d-vectors have cracked symmetry at i=7
CleanUpVectors: The d-vectors have cracked symmetry at i=8
CleanUpVectors: The p-vectors have cracked symmetry
CleanUpVectors: The p-vectors have cracked symmetry
CleanUpVectors: The p-vectors have cracked symmetry
CleanUpVectors: The p-vectors have cracked symmetry
CleanUpVectors: The p-vectors have cracked symmetry
CleanUpVectors: The p-vectors have cracked symmetry
CleanUpVectors: The d-vectors have cracked symmetry at i=17
CleanUpVectors: The d-vectors have cracked symmetry at i=18
CleanUpVectors: The d-vectors have cracked symmetry at i=19
CleanUpVectors: The d-vectors have cracked symmetry at i=20
CleanUpVectors: The d-vectors have cracked symmetry at i=21
CleanUpVectors: The p-vectors have cracked symmetry
CleanUpVectors: The p-vectors have cracked symmetry
CleanUpVectors: The p-vectors have cracked symmetry
CleanUpVectors: The d-vectors have cracked symmetry at i=26
CleanUpVectors: The d-vectors have cracked symmetry at i=27
CleanUpVectors: The d-vectors have cracked symmetry at i=28
CleanUpVectors: The d-vectors have cracked symmetry at i=29
CleanUpVectors: The d-vectors have cracked symmetry at i=30
CleanUpVectors: The d-vectors have cracked symmetry at i=32
CleanUpVectors: The d-vectors have cracked symmetry at i=33
CleanUpVectors: The d-vectors have cracked symmetry at i=34
CleanUpVectors: The d-vectors have cracked symmetry at i=35
CleanUpVectors: The d-vectors have cracked symmetry at i=36
CleanUpVectors: The p-vectors have cracked symmetry
CleanUpVectors: The p-vectors have cracked symmetry
CleanUpVectors: The p-vectors have cracked symmetry
--------------------------
ATOM BASIS FOR ELEMENT Rh
--------------------------
 NewGTO Rh
 S 9
    1         15.000000000000        -0.507591459686
    2         13.500000000000         0.771953389607
    3          7.405111610300        -0.314558178814
    4          4.513169643100        -0.482181695625
    5          1.323597742200         0.809993983266
    6          0.609541445400         0.509133480067
    7          0.189071927700         0.028853632364
    8          0.089080450800        -0.003011233879
    9          0.034131567500         0.002170371308
 P 23
    1         11.839425278000        -0.056894087031
    2          6.695365263600         0.235460279744
    3          1.833361628700        -0.409067052045
    4          1.026793177000        -0.404882934851
    5         11.839425278000         0.001006732276
    6          6.695365263600        -0.004166434085
    7          1.833361628700         0.007238379698
    8          1.026793177000         0.007164342376
    9         11.839425278000        -0.002170941633
   10          6.695365263600         0.008984598416
   11          1.833361628700        -0.015609015634
   12          1.026793177000        -0.015449359777
   13          0.580717670200        -0.278672023650
   14          0.580717670200         0.004931059366
   15          0.580717670200        -0.010633454716
   16          0.279077532700        -0.064853593624
   17          0.279077532700         0.001147574543
   18          0.279077532700        -0.002474657276
   19          0.067108954600        -0.002357079256
   20          0.067108954600         0.000041708161
   21          0.067108954600        -0.000089940480
   22          0.022101542200         0.000390824735
   23          0.022101542200         0.000014912933
 D 24
    1         15.000000000000        -0.000001802999
    2         13.500000000000         0.000003046700
    3          7.405111610300        -0.000002263298
    4          4.513169643100        -0.000006533808
    5          1.323597742200         0.000054170962
    6          0.609541445400         0.000024825865
    7          0.189071927700        -0.000280974168
    8          0.089080450800        -0.000067123606
    9          0.034131567500         0.000419957527
   10         26.341167176000        -0.000025163532
   11          7.870946270500         0.000210347207
   12          2.598997093900        -0.002109025047
   13          1.261343575200        -0.004426992969
   14         26.341167176000        -0.000076173039
   15          7.870946270500         0.000636746300
   16          2.598997093900        -0.006384272544
   17          1.261343575200        -0.013401040303
   18         26.341167176000         0.000039104133
   19          7.870946270500        -0.000326879595
   20          2.598997093900         0.003277425286
   21          1.261343575200         0.006879547833
   22         26.341167176000         0.000107859906
   23          7.870946270500        -0.000901623422
   24          2.598997093900         0.009040036283
 S 9
    1         15.000000000000        -0.146723824059
    2         13.500000000000         0.223139990158
    3          7.405111610300        -0.090925838100
    4          4.513169643100        -0.173330475944
    5          1.323597742200        -0.008944924225
    6          0.609541445400         1.943243135405
    7          0.189071927700        -5.398528183597
    8          0.089080450800         5.067246714531
    9          0.034131567500        -1.466272550618
 S 9
    1         15.000000000000        -0.842140678066
    2         13.500000000000         1.280741309874
    3          7.405111610300        -0.521880801859
    4          4.513169643100        -0.985710766544
    5          1.323597742200         5.024085113871
    6          0.609541445400        -6.154531548351
    7          0.189071927700         4.490851819492
    8          0.089080450800        -2.804364020876
    9          0.034131567500         0.689420418361
 S 9
    1         15.000000000000        -6.415680178538
    2         13.500000000000         9.757071294152
    3          7.405111610300        -3.975844420357
    4          4.513169643100        -0.913465103025
    5          1.323597742200         2.504335654691
    6          0.609541445400        -1.997129334241
    7          0.189071927700         1.124412743700
    8          0.089080450800        -0.692687460592
    9          0.034131567500         0.174185339677
 S 9
    1         15.000000000000        -8.984772384078
    2         13.500000000000        13.664188717891
    3          7.405111610300        -5.567929846459
    4          4.513169643100         1.694353966768
    5          1.323597742200         0.162748196107
    6          0.609541445400        -0.209422855430
    7          0.189071927700         0.137552787552
    8          0.089080450800        -0.087550291081
    9          0.034131567500         0.022426605535
 D 24
    1         26.341167176000        -0.000048314233
    2          7.870946270500         0.000403868738
    3          2.598997093900        -0.004049349154
    4          1.261343575200        -0.008499870714
    5         26.341167176000         0.001508057287
    6          7.870946270500        -0.012606164998
    7          2.598997093900         0.126394441614
    8          1.261343575200         0.265310886184
    9         26.341167176000         0.001429066240
   10          7.870946270500        -0.011945862377
   11          2.598997093900         0.119773983997
   12          1.261343575200         0.251414076681
   13         26.341167176000        -0.000081246459
   14          7.870946270500         0.000679156078
   15          2.598997093900        -0.006809489906
   16          1.261343575200        -0.014293601667
   17         26.341167176000         0.000032219063
   18          7.870946270500        -0.000269325856
   19          2.598997093900         0.002700368528
   20          1.261343575200         0.005668264822
   21          0.575784079800        -0.008968288569
   22          0.575784079800         0.279931856390
   23          0.575784079800         0.265269210096
   24          0.575784079800        -0.015081305206
 P 24
    1         11.839425278000        -0.012719829481
    2          6.695365263600         0.052641931072
    3          1.833361628700        -0.091455253434
    4          1.026793177000        -0.090519808997
    5         11.839425278000         0.000225075461
    6          6.695365263600        -0.000931491019
    7          1.833361628700         0.001618286895
    8          1.026793177000         0.001601734347
    9         11.839425278000        -0.000485358125
   10          6.695365263600         0.002008689580
   11          1.833361628700        -0.003489712685
   12          1.026793177000        -0.003454018374
   13          0.580717670200        -0.043649001080
   14          0.580717670200         0.000772362481
   15          0.580717670200        -0.001665540984
   16          0.279077532700        -0.071559678687
   17          0.279077532700         0.001266237706
   18          0.279077532700        -0.002730545366
   19          0.067108954600         1.455126621835
   20          0.067108954600        -0.025748245781
   21          0.067108954600         0.055524134921
   22          0.022101542200        -1.036578214922
   23          0.022101542200         0.018342094941
   24          0.022101542200        -0.039553333571
 D 24
    1         15.000000000000         0.000040378699
    2         13.500000000000        -0.000068231762
    3          7.405111610300         0.000050687241
    4          4.513169643100         0.000148944619
    5          1.323597742200        -0.001041637554
    6          0.609541445400        -0.002602097336
    7          0.189071927700         0.016799413403
    8          0.089080450800        -0.005484636576
    9          0.034131567500         0.019277740426
   10         26.341167176000         0.000714041470
   11          7.870946270500        -0.005968821382
   12          2.598997093900         0.059845785435
   13          1.261343575200         0.125620542844
   14         26.341167176000        -0.000022198443
   15          7.870946270500         0.000185561408
   16          2.598997093900        -0.001860512741
   17          1.261343575200        -0.003905348034
   18         26.341167176000         0.000047389648
   19          7.870946270500        -0.000396139941
   20          2.598997093900         0.003971857156
   21          1.261343575200         0.008337209520
   22         26.341167176000        -0.000000294139
   23          7.870946270500         0.000002458773
   24          2.598997093900        -0.000024652637
 P 24
    1         11.839425278000        -0.019877060776
    2          6.695365263600         0.082262648634
    3          1.833361628700        -0.142915566085
    4          1.026793177000        -0.141453763003
    5         11.839425278000         0.000351721588
    6          6.695365263600        -0.001455625142
    7          1.833361628700         0.002528869355
    8          1.026793177000         0.002503002970
    9         11.839425278000        -0.000758460871
   10          6.695365263600         0.003138944978
   11          1.833361628700        -0.005453314546
   12          1.026793177000        -0.005397535654
   13          0.580717670200        -1.129326939501
   14          0.580717670200         0.019983269614
   15          0.580717670200        -0.043092402007
   16          0.279077532700         2.232112896296
   17          0.279077532700        -0.039496900548
   18          0.279077532700         0.085172063897
   19          0.067108954600        -1.216005824556
   20          0.067108954600         0.021517039392
   21          0.067108954600        -0.046399859953
   22          0.022101542200         0.466252511238
   23          0.022101542200        -0.008250267761
   24          0.022101542200         0.017791075328
 D 24
    1         15.000000000000         0.000074320064
    2         13.500000000000        -0.000125585743
    3          7.405111610300         0.000093293718
    4          4.513169643100         0.000284077231
    5          1.323597742200        -0.002498909817
    6          0.609541445400        -0.002623808966
    7          0.189071927700         0.042658446724
    8          0.089080450800        -0.061698660966
    9          0.034131567500         0.040573141902
   10         26.341167176000         0.001107253299
   11          7.870946270500        -0.009255760975
   12          2.598997093900         0.092801953673
   13          1.261343575200         0.194797874449
   14         26.341167176000        -0.000034430802
   15          7.870946270500         0.000287814244
   16          2.598997093900        -0.002885740480
   17          1.261343575200        -0.006057373682
   18         26.341167176000         0.000073490656
   19          7.870946270500        -0.000614323698
   20          2.598997093900         0.006159454583
   21          1.261343575200         0.012929131478
   22         26.341167176000        -0.000000444889
   23          7.870946270500         0.000003718917
   24          2.598997093900        -0.000037287346
 D 24
    1         15.000000000000         0.000481707944
    2         13.500000000000        -0.000813988128
    3          7.405111610300         0.000604686307
    4          4.513169643100         0.001909308864
    5          1.323597742200        -0.032239757096
    6          0.609541445400         0.082290024971
    7          0.189071927700        -0.179683761747
    8          0.089080450800         0.232345115071
    9          0.034131567500        -0.145651660424
   10         26.341167176000         0.005899634613
   11          7.870946270500        -0.049316274646
   12          2.598997093900         0.494464652585
   13          1.261343575200         1.037916331515
   14         26.341167176000        -0.000183579981
   15          7.870946270500         0.001534583300
   16          2.598997093900        -0.015386344643
   17          1.261343575200        -0.032297027308
   18         26.341167176000         0.000391637938
   19          7.870946270500        -0.003273783107
   20          2.598997093900         0.032824256056
   21          1.261343575200         0.068900438591
   22         26.341167176000        -0.000002192751
   23          7.870946270500         0.000018329660
   24          2.598997093900        -0.000183780485
 P 24
    1         11.839425278000        -0.193812211437
    2          6.695365263600         0.802105805789
    3          1.833361628700        -1.393504916239
    4          1.026793177000        -1.379251536869
    5         11.839425278000         0.003429477807
    6          6.695365263600        -0.014193141078
    7          1.833361628700         0.024657859009
    8          1.026793177000         0.024405647614
    9         11.839425278000        -0.007395408218
   10          6.695365263600         0.030606429925
   11          1.833361628700        -0.053172798727
   12          1.026793177000        -0.052628924024
   13          0.580717670200         4.225402294911
   14          0.580717670200        -0.074767855377
   15          0.580717670200         0.161231197068
   16          0.279077532700        -2.489763258703
   17          0.279077532700         0.044055984793
   18          0.279077532700        -0.095003382542
   19          0.067108954600         0.646918830226
   20          0.067108954600        -0.011447130986
   21          0.067108954600         0.024684867883
   22          0.022101542200        -0.234713867388
   23          0.022101542200         0.004153226431
   24          0.022101542200        -0.008956117114
 end
  // -----------------------------------------------
  // The basis set
  // -----------------------------------------------
  BAS[ATNO] = new BFNGauss[NSH];
  // Basis function   1 L = s
  InitBFNGauss(BAS[ATNO][  0]);
  BAS[ATNO][  0].l  = 0;
  BAS[ATNO][  0].ng = 9;
  BAS[ATNO][  0].a[  0] =        15.000000000000;     BAS[ATNO][  0].d[  0] =        -0.507591459686;
  BAS[ATNO][  0].a[  1] =        13.500000000000;     BAS[ATNO][  0].d[  1] =         0.771953389607;
  BAS[ATNO][  0].a[  2] =         7.405111610300;     BAS[ATNO][  0].d[  2] =        -0.314558178814;
  BAS[ATNO][  0].a[  3] =         4.513169643100;     BAS[ATNO][  0].d[  3] =        -0.482181695625;
  BAS[ATNO][  0].a[  4] =         1.323597742200;     BAS[ATNO][  0].d[  4] =         0.809993983266;
  BAS[ATNO][  0].a[  5] =         0.609541445400;     BAS[ATNO][  0].d[  5] =         0.509133480067;
  BAS[ATNO][  0].a[  6] =         0.189071927700;     BAS[ATNO][  0].d[  6] =         0.028853632364;
  BAS[ATNO][  0].a[  7] =         0.089080450800;     BAS[ATNO][  0].d[  7] =        -0.003011233879;
  BAS[ATNO][  0].a[  8] =         0.034131567500;     BAS[ATNO][  0].d[  8] =         0.002170371308;

FINAL SINGLE POINT ENERGY      -109.686322028282

DIPOLE MOMENT
-------------
                                X             Y             Z
Electronic contribution:     -0.00000      -0.00000      -0.00000
Nuclear contribution   :      0.00000       0.00000       0.00000
                        -----------------------------------------
Total Dipole Moment    :     -0.00000      -0.00000      -0.00000
                        -----------------------------------------
Magnitude (a.u.)       :      0.00000
Magnitude (Debye)      :      0.00000

Rotational constants in cm-1:     0.000000     0.000000     0.000000
Rotational constants in MHz :     0.000000     0.000000     0.000000

                             ****ORCA TERMINATED NORMALLY****
TOTAL RUN TIME: 0 days 0 hours 0 minutes 1 seconds 680 msec
