                         Program Version 4.2.0 -  RELEASE  -
|  1> #
|  2> # 45_Rh CCSD(T)/Def2-QZVPPD
|  3> #
|  4> ! CCSD(T) Def2-QZVPPD tightscf
|  5>
|  6> *xyz 0 4
|  7>  Rh 0.0 0.0 0.0
|  8> *
|  9>
| 10> %maxcore 5000
| 11>
| 12> %pal
| 13> nprocs 24
| 14> end
| 15>
| 16>
| 17>                          ****END OF INPUT****

CARTESIAN COORDINATES (ANGSTROEM)
---------------------------------
  Rh     0.000000    0.000000    0.000000

 Total Charge           Charge          ....    0
 Multiplicity           Mult            ....    4
 Number of Electrons    NEL             ....   17
 Basis Dimension        Dim             ....   88

ORBITAL ENERGIES
----------------
                 SPIN UP ORBITALS
  NO   OCC          E(Eh)            E(eV)
   0   1.0000      -3.827356      -104.1477
   1   1.0000      -2.452728       -66.7421
   2   1.0000      -2.452728       -66.7421
   3   1.0000      -2.452728       -66.7421
   4   1.0000      -0.482146       -13.1199
   5   1.0000      -0.482146       -13.1199
   6   1.0000      -0.438839       -11.9414
   7   1.0000      -0.438839       -11.9414
   8   1.0000      -0.438839       -11.9414
   9   1.0000      -0.237608        -6.4656
  10   0.0000       0.028390         0.7725
  11   0.0000       0.028390         0.7725
  12   0.0000       0.028390         0.7725
  13   0.0000       0.128133         3.4867
  14   0.0000       0.138231         3.7614

                 SPIN DOWN ORBITALS
  NO   OCC          E(Eh)            E(eV)
   0   1.0000      -3.693191      -100.4968
   1   1.0000      -2.289514       -62.3008
   2   1.0000      -2.289514       -62.3008
   3   1.0000      -2.289514       -62.3008
   4   1.0000      -0.390878       -10.6363
   5   1.0000      -0.390878       -10.6363
   6   1.0000      -0.390878       -10.6363
   7   0.0000       0.016025         0.4361
   8   0.0000       0.046740         1.2718
   9   0.0000       0.046740         1.2718
  10   0.0000       0.046740         1.2718
  11   0.0000       0.162044         4.4094

E(0)                                       ...   -109.746485472
E(0)                                       ...   -109.746485472
E(CORR)                                    ...     -0.586446634
E(TOT)                                     ...   -110.332932106
E(CCSD(T))                                 ...   -110.353888636

MULLIKEN ATOMIC CHARGES AND SPIN DENSITIES
------------------------------------------
   0 Rh:   -0.000000    3.000000
Sum of atomic charges       :   -0.0000000

LOEWDIN ATOMIC CHARGES AND SPIN DENSITIES
-----------------------------------------
   0 Rh:   -0.000000    3.000000

FINAL SINGLE POINT ENERGY      -110.353888635757

DIPOLE MOMENT
-------------
                                X             Y             Z
Electronic contribution:     -0.00000      -0.00000       0.00000
Nuclear contribution   :      0.00000       0.00000       0.00000
                        -----------------------------------------
Total Dipole Moment    :     -0.00000      -0.00000       0.00000
                        -----------------------------------------
Magnitude (a.u.)       :      0.00000
Magnitude (Debye)      :      0.00000

Rotational constants in cm-1:     0.000000     0.000000     0.000000
Rotational constants in MHz :     0.000000     0.000000     0.000000

                             ****ORCA TERMINATED NORMALLY****
TOTAL RUN TIME: 0 days 0 hours 0 minutes 24 seconds 125 msec
