                         Program Version 4.2.0 -  RELEASE  -
|  1> #
|  2> # 47_Ag CCSD(T)/Def2-QZVPPD
|  3> #
|  4> ! CCSD(T) Def2-QZVPPD tightscf
|  5>
|  6> *xyz 0 2
|  7>  Ag 0.0 0.0 0.0
|  8> *
|  9>
| 10> %maxcore 5000
| 11>
| 12> %pal
| 13> nprocs 24
| 14> end
| 15>
| 16>
| 17>                          ****END OF INPUT****

CARTESIAN COORDINATES (ANGSTROEM)
---------------------------------
  Ag     0.000000    0.000000    0.000000

 Total Charge           Charge          ....    0
 Multiplicity           Mult            ....    2
 Number of Electrons    NEL             ....   19
 Basis Dimension        Dim             ....   88

ORBITAL ENERGIES
----------------
                 SPIN UP ORBITALS
  NO   OCC          E(Eh)            E(eV)
   0   1.0000      -4.332547      -117.8946
   1   1.0000      -2.783921       -75.7543
   2   1.0000      -2.783921       -75.7543
   3   1.0000      -2.783921       -75.7543
   4   1.0000      -0.511997       -13.9322
   5   1.0000      -0.511997       -13.9322
   6   1.0000      -0.511997       -13.9322
   7   1.0000      -0.511997       -13.9322
   8   1.0000      -0.511997       -13.9322
   9   1.0000      -0.238318        -6.4850
  10   0.0000       0.029955         0.8151
  11   0.0000       0.029955         0.8151
  12   0.0000       0.029955         0.8151
  13   0.0000       0.109409         2.9772
  14   0.0000       0.137648         3.7456

                 SPIN DOWN ORBITALS
  NO   OCC          E(Eh)            E(eV)
   0   1.0000      -4.331804      -117.8744
   1   1.0000      -2.787844       -75.8611
   2   1.0000      -2.787844       -75.8611
   3   1.0000      -2.787844       -75.8611
   4   1.0000      -0.509533       -13.8651
   5   1.0000      -0.509533       -13.8651
   6   1.0000      -0.509533       -13.8651
   7   1.0000      -0.509533       -13.8651
   8   1.0000      -0.509533       -13.8651
   9   0.0000       0.008932         0.2431
  10   0.0000       0.045982         1.2512
  11   0.0000       0.045982         1.2512
  12   0.0000       0.045982         1.2512
  13   0.0000       0.143792         3.9128

E(0)                                       ...   -146.118089270
E(0)                                       ...   -146.118089270
E(CORR)                                    ...     -0.701880502
E(TOT)                                     ...   -146.819969772
E(CCSD(T))                                 ...   -146.844453705

MULLIKEN ATOMIC CHARGES AND SPIN DENSITIES
------------------------------------------
   0 Ag:    0.000000    1.000000
Sum of atomic charges       :    0.0000000

LOEWDIN ATOMIC CHARGES AND SPIN DENSITIES
-----------------------------------------
   0 Ag:   -0.000000    1.000000

FINAL SINGLE POINT ENERGY      -146.844453705396

DIPOLE MOMENT
-------------
                                X             Y             Z
Electronic contribution:      0.00000       0.00000      -0.00000
Nuclear contribution   :      0.00000       0.00000       0.00000
                        -----------------------------------------
Total Dipole Moment    :      0.00000       0.00000      -0.00000
                        -----------------------------------------
Magnitude (a.u.)       :      0.00000
Magnitude (Debye)      :      0.00000

Rotational constants in cm-1:     0.000000     0.000000     0.000000
Rotational constants in MHz :     0.000000     0.000000     0.000000

                             ****ORCA TERMINATED NORMALLY****
TOTAL RUN TIME: 0 days 0 hours 0 minutes 24 seconds 984 msec
