                         Program Version 4.2.0 -  RELEASE  -
|  1> # input to generate an atomic fitting density for Ag
|  2> # this file is use internally by ORCA
|  3> #
|  4> # atomic ground state (S=2): 1s2 2s2 2p6 3s2 3p6 4s2 3d10 4p6 5s2 4d9
|  5> #
|  6> ! RHF AllowRHF def2-SVP def2/J  NoMulliken NoLoewdin NoMayer NoPrintMOs
|  7>
|  8> %output print[p_atomdensfit] 2 end
|  9>
| 10> %scf
| 11>   guess hcore
| 12>   maxiter 1000
| 13>   maxdisk 500000
| 14>   SCFMode Conventional
| 15>   lshift 1.000000
| 16>   hftyp rohf
| 17>   rohf_case sahf
| 18>   rohf_numop   2
| 19>   rohf_norb[1] 5
| 20>   rohf_nel[1]  9
| 21> end
| 22>
| 23> %basis
| 24>   NewECP 47
| 25>     N_core 28
| 26>     lmax f
| 27>     s 4
| 28>       1      13.1300000000    255.1393645000  2
| 29>       2       6.5100000000     36.8661215000  2
| 30>       3      14.2200000000     33.6899201000  2
| 31>       4       7.1100000000      5.5311202000  2
| 32>     p 4
| 33>       1      11.7400000000    182.1818687000  2
| 34>       2       6.2000000000     30.3577515000  2
| 35>       3      14.2200000000     33.6899201000  2
| 36>       4       7.1100000000      5.5311202000  2
| 37>     d 4
| 38>       1      10.2100000000     73.7192609000  2
| 39>       2       4.3800000000     12.5021171000  2
| 40>       3      14.2200000000     33.6899201000  2
| 41>       4       7.1100000000      5.5311202000  2
| 42>     f 2
| 43>       1      14.2200000000    -33.6899201000  2
| 44>       2       7.1100000000     -5.5311202000  2
| 45>   end
| 46>   NewGTO 47
| 47>     s 4
| 48>      1     256.5089838100      0.0087053886
| 49>      2      19.0000000000     -1.7486823983
| 50>      3      14.1297497370      5.6971512128
| 51>      4       9.4840599768     -3.2021126602
| 52>     s 1
| 53>      1       5.5812682897      1.0000000000
| 54>     s 1
| 55>      1       1.4763753299      1.0000000000
| 56>     s 1
| 57>      1       0.6618458433      1.0000000000
| 58>     s 1
| 59>      1       0.1538217174      1.0000000000
| 60>     s 1
| 61>      1       0.0795342487      1.0000000000
| 62>     s 1
| 63>      1       0.0324086245      1.0000000000
| 64>     p 4
| 65>      1      13.3503895370      0.0766730800
| 66>      2       7.7163302467     -0.2994154880
| 67>      3       2.0864535219      0.5576270061
| 68>      4       1.0577805733      0.5842288878
| 69>     p 1
| 70>      1       0.5256442766      1.0000000000
| 71>     p 1
| 72>      1       0.2369490889      1.0000000000
| 73>     p 1
| 74>      1       0.0664579803      1.0000000000
| 75>     p 1
| 76>      1       0.0218648393      1.0000000000
| 77>     d 4
| 78>      1      32.1479612740      0.0043282957
| 79>      2       9.0323725307     -0.0352318892
| 80>      3       3.1673540854      0.3380959130
| 81>      4       1.5519381135      0.7221210980
| 82>     d 1
| 83>      1       0.7131028400      1.0000000000
| 84>     d 1
| 85>      1       0.3074974155      1.0000000000
| 86>     d 1
| 87>      1       0.1209430421      1.0000000000
| 88>   end
| 89>   NewAuxGTO 47
| 90>     S 1
| 91>      1 1310.72 1.0
| 92>     S 1
| 93>      1  655.36 1.0
| 94>     S 1
| 95>      1  327.68 1.0
| 96>     S 1
| 97>      1  163.84 1.0
| 98>     S 1
| 99>      1   81.82 1.0
|100>     S 1
|101>      1   40.96 1.0
|102>     S 1
|103>      1   20.48 1.0
|104>     S 1
|105>      1   10.24 1.0
|106>     S 1
|107>      1    5.12 1.0
|108>     S 1
|109>      1    2.56 1.0
|110>     S 1
|111>      1    1.28 1.0
|112>     S 1
|113>      1    0.64 1.0
|114>     S 1
|115>      1    0.32 1.0
|116>     S 1
|117>      1    0.16 1.0
|118>     S 1
|119>      1    0.08 1.0
|120>     S 1
|121>      1    0.04 1.0
|122>     S 1
|123>      1    0.02 1.0
|124>     S 1
|125>      1    0.01 1.0
|126>   end
|127> end
|128>
|129> * xyz 0 2
|130> 47  0.0 0.0 0.0
|131> *
|132>
|133>
|134>                          ****END OF INPUT****

CARTESIAN COORDINATES (ANGSTROEM)
---------------------------------
  Ag     0.000000    0.000000    0.000000

 Total Charge           Charge          ....    0
 Multiplicity           Mult            ....    2
 Number of Electrons    NEL             ....   19
 Basis Dimension        Dim             ....   42

ORBITAL ENERGIES
----------------

  NO   OCC          E(Eh)            E(eV)
   0   2.0000      -4.470726      -121.6546
   1   2.0000      -2.912375       -79.2498
   2   2.0000      -2.910133       -79.1887
   3   2.0000      -2.909821       -79.1802
   4   2.0000      -0.626604       -17.0508
   5   1.8000      -0.631772       -17.1914
   6   1.8000      -0.629673       -17.1343
   7   1.8000      -0.628668       -17.1069
   8   1.8000      -0.621473       -16.9111
   9   1.8000      -0.273487        -7.4420
  10   0.0000       0.013651         0.3714
  11   0.0000       0.014282         0.3886
  12   0.0000       0.014369         0.3910
  13   0.0000       0.083316         2.2671
  14   0.0000       0.108730         2.9587

CleanUpVectors: The p-vectors have cracked symmetry
CleanUpVectors: The p-vectors have cracked symmetry
CleanUpVectors: The p-vectors have cracked symmetry
CleanUpVectors: The d-vectors have cracked symmetry at i=4
CleanUpVectors: The d-vectors have cracked symmetry at i=5
CleanUpVectors: The d-vectors have cracked symmetry at i=6
CleanUpVectors: The d-vectors have cracked symmetry at i=7
CleanUpVectors: The d-vectors have cracked symmetry at i=8
CleanUpVectors: The p-vectors have cracked symmetry
CleanUpVectors: The p-vectors have cracked symmetry
CleanUpVectors: The p-vectors have cracked symmetry
CleanUpVectors: The p-vectors have cracked symmetry
CleanUpVectors: The p-vectors have cracked symmetry
CleanUpVectors: The p-vectors have cracked symmetry
CleanUpVectors: The d-vectors have cracked symmetry at i=17
CleanUpVectors: The d-vectors have cracked symmetry at i=18
CleanUpVectors: The d-vectors have cracked symmetry at i=19
CleanUpVectors: The d-vectors have cracked symmetry at i=20
CleanUpVectors: The d-vectors have cracked symmetry at i=21
CleanUpVectors: The p-vectors have cracked symmetry
CleanUpVectors: The p-vectors have cracked symmetry
CleanUpVectors: The p-vectors have cracked symmetry
CleanUpVectors: The d-vectors have cracked symmetry at i=26
CleanUpVectors: The d-vectors have cracked symmetry at i=27
CleanUpVectors: The d-vectors have cracked symmetry at i=28
CleanUpVectors: The d-vectors have cracked symmetry at i=29
CleanUpVectors: The d-vectors have cracked symmetry at i=30
CleanUpVectors: The p-vectors have cracked symmetry
CleanUpVectors: The p-vectors have cracked symmetry
CleanUpVectors: The p-vectors have cracked symmetry
CleanUpVectors: The d-vectors have cracked symmetry at i=35
CleanUpVectors: The d-vectors have cracked symmetry at i=36
CleanUpVectors: The d-vectors have cracked symmetry at i=37
--------------------------
ATOM BASIS FOR ELEMENT Ag
--------------------------
 NewGTO Ag
 S 10
    1        256.508983810000         0.000681325307
    2         19.000000000000        -0.136860239938
    3         14.129749737000         0.445886275694
    4          9.484059976800        -0.250612636927
    5          5.581268289700        -0.584907836339
    6          1.476375329900         0.864821002906
    7          0.661845843300         0.457270421786
    8          0.153821717400         0.017980009461
    9          0.079534248700        -0.000414734486
   10          0.032408624500         0.003116293903
 P 24
    1         13.350389537000        -0.025227798746
    2          7.716330246700         0.098516893709
    3          2.086453521900        -0.183476415520
    4          1.057780573300        -0.192229251819
    5         13.350389537000        -0.058019739662
    6          7.716330246700         0.226572464083
    7          2.086453521900        -0.421965228503
    8          1.057780573300        -0.442095295676
    9         13.350389537000        -0.005866614457
   10          7.716330246700         0.022909673519
   11          2.086453521900        -0.042666639393
   12          1.057780573300        -0.044702073261
   13          0.525644276600        -0.077357956425
   14          0.525644276600        -0.177910428799
   15          0.525644276600        -0.017989255031
   16          0.236949088900        -0.008315544369
   17          0.236949088900        -0.019124368491
   18          0.236949088900        -0.001933743538
   19          0.066457980300        -0.000464348241
   20          0.066457980300        -0.001067923694
   21          0.066457980300        -0.000107982156
   22          0.021864839300         0.000077219616
   23          0.021864839300         0.000177592270
   24          0.021864839300         0.000017957085
 D 25
    1        256.508983810000         0.000000000275
    2         19.000000000000        -0.000000747100
    3         14.129749737000         0.000003272992
    4          9.484059976800        -0.000002740715
    5          5.581268289700        -0.000011979616
    6          1.476375329900         0.000096888051
    7          0.661845843300         0.000029124002
    8          0.153821717400        -0.000634292840
    9          0.079534248700        -0.000247029105
   10          0.032408624500        -0.000667293263
   11         32.147961274000         0.001573842351
   12          9.032372530700        -0.012810917549
   13          3.167354085400         0.122937457046
   14          1.551938113500         0.262575583005
   15         32.147961274000        -0.000917124818
   16          9.032372530700         0.007465303253
   17          3.167354085400        -0.071639318145
   18          1.551938113500        -0.153010613527
   19         32.147961274000         0.000624999489
   20          9.032372530700        -0.005087432625
   21          3.167354085400         0.048820549144
   22          1.551938113500         0.104273217148
   23         32.147961274000         0.001168599323
   24          9.032372530700        -0.009512280287
   25          3.167354085400         0.091282731674
 S 10
    1        256.508983810000        -0.000178615023
    2         19.000000000000         0.035879035438
    3         14.129749737000        -0.116892747624
    4          9.484059976800         0.065700160145
    5          5.581268289700         0.180848395535
    6          1.476375329900        -0.155238458508
    7          0.661845843300        -1.124707945868
    8          0.153821717400         5.252984441348
    9          0.079534248700        -5.873166207408
   10          0.032408624500         1.792797187856
 S 10
    1        256.508983810000         0.001061428502
    2         19.000000000000        -0.213212921798
    3         14.129749737000         0.694640866281
    4          9.484059976800        -0.390426412979
    5          5.581268289700        -1.014919668954
    6          1.476375329900         4.248344552497
    7          0.661845843300        -4.791788749810
    8          0.153821717400         3.877778172827
    9          0.079534248700        -3.020250453618
   10          0.032408624500         0.769159753045
 D 25
    1         32.147961274000         0.001399822993
    2          9.032372530700        -0.011394417570
    3          3.167354085400         0.109344292879
    4          1.551938113500         0.233542665847
    5         32.147961274000         0.001495041790
    6          9.032372530700        -0.012169488947
    7          3.167354085400         0.116782113300
    8          1.551938113500         0.249428711322
    9         32.147961274000         0.000309041166
   10          9.032372530700        -0.002515563832
   11          3.167354085400         0.024140114820
   12          1.551938113500         0.051559588713
   13         32.147961274000        -0.000864510982
   14          9.032372530700         0.007037031950
   15          3.167354085400        -0.067529496596
   16          1.551938113500        -0.144232664028
   17         32.147961274000         0.000193944331
   18          9.032372530700        -0.001578687239
   19          3.167354085400         0.015149562389
   20          1.551938113500         0.032357145431
   21          0.713102840000         0.241180844925
   22          0.713102840000         0.257586454822
   23          0.713102840000         0.053245881752
   24          0.713102840000        -0.148949895942
   25          0.713102840000         0.033415408898
 P 24
    1         13.350389537000        -0.005337671972
    2          7.716330246700         0.020844104062
    3          2.086453521900        -0.038819753181
    4          1.057780573300        -0.040671669373
    5         13.350389537000        -0.012275757443
    6          7.716330246700         0.047937971257
    7          2.086453521900        -0.089278973407
    8          1.057780573300        -0.093538072523
    9         13.350389537000        -0.001241252313
   10          7.716330246700         0.004847205397
   11          2.086453521900        -0.009027364120
   12          1.057780573300        -0.009458019145
   13          0.525644276600         0.000374743853
   14          0.525644276600         0.000861848512
   15          0.525644276600         0.000087145047
   16          0.236949088900        -0.019647836145
   17          0.236949088900        -0.045186754087
   18          0.236949088900        -0.004569018515
   19          0.066457980300         0.567960831792
   20          0.066457980300         1.306215414640
   21          0.066457980300         0.132076811782
   22          0.021864839300        -0.425165192261
   23          0.021864839300        -0.977809202349
   24          0.021864839300        -0.098870309239
 D 25
    1        256.508983810000        -0.000000000980
    2         19.000000000000         0.000002657247
    3         14.129749737000        -0.000011641203
    4          9.484059976800         0.000009748031
    5          5.581268289700         0.000042924971
    6          1.476375329900        -0.000350771962
    7          0.661845843300        -0.000260529071
    8          0.153821717400         0.003382289705
    9          0.079534248700         0.006021755374
   10          0.032408624500        -0.006614751329
   11         32.147961274000        -0.000172410321
   12          9.032372530700         0.001403402575
   13          3.167354085400        -0.013467477494
   14          1.551938113500        -0.028764469671
   15         32.147961274000         0.000463764732
   16          9.032372530700        -0.003774998008
   17          3.167354085400         0.036226027812
   18          1.551938113500         0.077373248164
   19         32.147961274000         0.000060300309
   20          9.032372530700        -0.000490838414
   21          3.167354085400         0.004710234544
   22          1.551938113500         0.010060339715
   23         32.147961274000         0.000569166370
   24          9.032372530700        -0.004632956678
   25          3.167354085400         0.044459259877
 P 24
    1         13.350389537000        -0.007931923067
    2          7.716330246700         0.030974895176
    3          2.086453521900        -0.057687189720
    4          1.057780573300        -0.060439186628
    5         13.350389537000        -0.018242103324
    6          7.716330246700         0.071237105237
    7          2.086453521900        -0.132670938241
    8          1.057780573300        -0.139000073246
    9         13.350389537000        -0.001844534079
   10          7.716330246700         0.007203076641
   11          2.086453521900        -0.013414904115
   12          1.057780573300        -0.014054868981
   13          0.525644276600        -0.320321209236
   14          0.525644276600        -0.736685485529
   15          0.525644276600        -0.074489298729
   16          0.236949088900         0.848145834905
   17          0.236949088900         1.950594304001
   18          0.236949088900         0.197232611018
   19          0.066457980300        -0.575987221533
   20          0.066457980300        -1.324674775566
   21          0.066457980300        -0.133943313686
   22          0.021864839300         0.211741644427
   23          0.021864839300         0.486970552163
   24          0.021864839300         0.049239594976
 D 25
    1        256.508983810000        -0.000000001286
    2         19.000000000000         0.000003488791
    3         14.129749737000        -0.000015284134
    4          9.484059976800         0.000012798524
    5          5.581268289700         0.000059731339
    6          1.476375329900        -0.000501643210
    7          0.661845843300        -0.000456443976
    8          0.153821717400         0.015024413138
    9          0.079534248700        -0.024547538513
   10          0.032408624500         0.015758555283
   11         32.147961274000        -0.000267824992
   12          9.032372530700         0.002180068345
   13          3.167354085400        -0.020920598194
   14          1.551938113500        -0.044683194199
   15         32.147961274000         0.000722567832
   16          9.032372530700        -0.005881629065
   17          3.167354085400         0.056441899476
   18          1.551938113500         0.120551254409
   19         32.147961274000         0.000094432879
   20          9.032372530700        -0.000768674086
   21          3.167354085400         0.007376430070
   22          1.551938113500         0.015754925086
   23         32.147961274000         0.000888274721
   24          9.032372530700        -0.007230466380
   25          3.167354085400         0.069385752162
 P 24
    1         13.350389537000        -0.054835041952
    2          7.716330246700         0.214135924181
    3          2.086453521900        -0.398803599296
    4          1.057780573300        -0.417828729094
    5         13.350389537000        -0.126111472919
    6          7.716330246700         0.492476997226
    7          2.086453521900        -0.917181924590
    8          1.057780573300        -0.960936557685
    9         13.350389537000        -0.012751649605
   10          7.716330246700         0.049796374286
   11          2.086453521900        -0.092740035905
   12          1.057780573300        -0.097164246779
   13          0.525644276600         1.360275989541
   14          0.525644276600         3.128408450332
   15          0.525644276600         0.316326242625
   16          0.236949088900        -0.918519016076
   17          0.236949088900        -2.112440911828
   18          0.236949088900        -0.213597587084
   19          0.066457980300         0.296564014052
   20          0.066457980300         0.682047889367
   21          0.066457980300         0.068964666718
   22          0.021864839300        -0.099489096017
   23          0.021864839300        -0.228808367632
   24          0.021864839300        -0.023135754926
 D 25
    1        256.508983810000        -0.000000004000
    2         19.000000000000         0.000010846392
    3         14.129749737000        -0.000047517242
    4          9.484059976800         0.000039789663
    5          5.581268289700         0.000182975260
    6          1.476375329900        -0.002762056109
    7          0.661845843300         0.006388880145
    8          0.153821717400        -0.018287365867
    9          0.079534248700         0.026465988201
   10          0.032408624500        -0.016003591176
   11         32.147961274000        -0.001422079544
   12          9.032372530700         0.011575583649
   13          3.167354085400        -0.111082817620
   14          1.551938113500        -0.237255888476
   15         32.147961274000         0.003842036986
   16          9.032372530700        -0.031273792450
   17          3.167354085400         0.300112814029
   18          1.551938113500         0.640995014899
   19         32.147961274000         0.000503325283
   20          9.032372530700        -0.004097016895
   21          3.167354085400         0.039316218894
   22          1.551938113500         0.083973423118
   23         32.147961274000         0.004726853700
   24          9.032372530700        -0.038476111005
   25          3.167354085400         0.369228451107
 S 25
    1        256.508983810000         0.007650646740
    2         19.000000000000        -1.536812646075
    3         14.129749737000         5.006886349942
    4          9.484059976800        -2.814145802083
    5          5.581268289700        -2.234230179458
    6          1.476375329900         2.420891649335
    7          0.661845843300        -1.665892002617
    8          0.153821717400         0.962870165220
    9          0.079534248700        -0.742776860261
   10          0.032408624500         0.192790140016
   11         32.147961274000         0.000010867998
   12          9.032372530700        -0.000024855182
   13          3.167354085400         0.000083640325
   14          1.551938113500         0.000087531346
   15         32.147961274000        -0.000021425043
   16          9.032372530700         0.000048999215
   17          3.167354085400        -0.000164887558
   18          1.551938113500        -0.000172558271
   19         32.147961274000        -0.000001033349
   20          9.032372530700         0.000002363277
   21          3.167354085400        -0.000007952676
   22          1.551938113500        -0.000008322642
   23         32.147961274000        -0.000020892546
   24          9.032372530700         0.000047781390
   25          3.167354085400        -0.000160789450
 S 25
    1        256.508983810000         0.009292102768
    2         19.000000000000        -1.866537761850
    3         14.129749737000         6.081120210279
    4          9.484059976800        -3.417924377675
    5          5.581268289700        -0.259343858070
    6          1.476375329900         0.611506035966
    7          0.661845843300        -0.416027594849
    8          0.153821717400         0.241856400839
    9          0.079534248700        -0.187303595972
   10          0.032408624500         0.048801590676
   11         32.147961274000         0.000000502495
   12          9.032372530700        -0.000001149209
   13          3.167354085400         0.000003867212
   14          1.551938113500         0.000004047118
   15         32.147961274000        -0.000000991502
   16          9.032372530700         0.000002267571
   17          3.167354085400        -0.000007630616
   18          1.551938113500        -0.000007985599
   19         32.147961274000        -0.000000048093
   20          9.032372530700         0.000000109989
   21          3.167354085400        -0.000000370126
   22          1.551938113500        -0.000000387344
   23         32.147961274000        -0.000000967698
   24          9.032372530700         0.000002213131
   25          3.167354085400        -0.000007447420
 end
  // -----------------------------------------------
  // The basis set
  // -----------------------------------------------
  BAS[ATNO] = new BFNGauss[NSH];
  // Basis function   1 L = s
  InitBFNGauss(BAS[ATNO][  0]);
  BAS[ATNO][  0].l  = 0;
  BAS[ATNO][  0].ng = 10;
  BAS[ATNO][  0].a[  0] =       256.508983810000;     BAS[ATNO][  0].d[  0] =         0.000681325307;
  BAS[ATNO][  0].a[  1] =        19.000000000000;     BAS[ATNO][  0].d[  1] =        -0.136860239938;
  BAS[ATNO][  0].a[  2] =        14.129749737000;     BAS[ATNO][  0].d[  2] =         0.445886275694;
  BAS[ATNO][  0].a[  3] =         9.484059976800;     BAS[ATNO][  0].d[  3] =        -0.250612636927;
  BAS[ATNO][  0].a[  4] =         5.581268289700;     BAS[ATNO][  0].d[  4] =        -0.584907836339;
  BAS[ATNO][  0].a[  5] =         1.476375329900;     BAS[ATNO][  0].d[  5] =         0.864821002906;
  BAS[ATNO][  0].a[  6] =         0.661845843300;     BAS[ATNO][  0].d[  6] =         0.457270421786;
  BAS[ATNO][  0].a[  7] =         0.153821717400;     BAS[ATNO][  0].d[  7] =         0.017980009461;
  BAS[ATNO][  0].a[  8] =         0.079534248700;     BAS[ATNO][  0].d[  8] =        -0.000414734486;
  BAS[ATNO][  0].a[  9] =         0.032408624500;     BAS[ATNO][  0].d[  9] =         0.003116293903;

FINAL SINGLE POINT ENERGY      -145.993551475567

DIPOLE MOMENT
-------------
                                X             Y             Z
Electronic contribution:      0.00000      -0.00000      -0.00000
Nuclear contribution   :      0.00000       0.00000       0.00000
                        -----------------------------------------
Total Dipole Moment    :      0.00000      -0.00000      -0.00000
                        -----------------------------------------
Magnitude (a.u.)       :      0.00000
Magnitude (Debye)      :      0.00000

Rotational constants in cm-1:     0.000000     0.000000     0.000000
Rotational constants in MHz :     0.000000     0.000000     0.000000

                             ****ORCA TERMINATED NORMALLY****
TOTAL RUN TIME: 0 days 0 hours 0 minutes 1 seconds 755 msec
