                         Program Version 4.2.0 -  RELEASE  -
|  1> # input to generate an atomic fitting density for Cd
|  2> # this file is use internally by ORCA
|  3> #
|  4> # atomic ground state (S=1): 1s2 2s2 2p6 3s2 3p6 4s2 3d10 4p6 5s2 4d10
|  5> #
|  6> ! RHF AllowRHF def2-SVP def2/J  NoMulliken NoLoewdin NoMayer NoPrintMOs
|  7>
|  8> %output print[p_atomdensfit] 2 end
|  9>
| 10> %scf
| 11>   guess hcore
| 12>   maxiter 1000
| 13>   maxdisk 500000
| 14>   SCFMode Conventional
| 15>   lshift 1.000000
| 16>   hftyp rohf
| 17>   rohf_case sahf
| 18>   rohf_numop   2
| 19>   rohf_norb[1] 5
| 20>   rohf_nel[1]  10
| 21> end
| 22>
| 23> %basis
| 24>   NewECP 48
| 25>     N_core 28
| 26>     lmax f
| 27>     s 4
| 28>       1      13.8358689000    270.0094832000  2
| 29>       2       6.8572704000     38.7673080000  2
| 30>       3      15.1847957000     35.4766256000  2
| 31>       4       7.5923978000      5.6176768000  2
| 32>     p 4
| 33>       1      12.4049710000    193.8296294000  2
| 34>       2       6.5677995000     31.8965252000  2
| 35>       3      15.1847957000     35.4766256000  2
| 36>       4       7.5923978000      5.6176768000  2
| 37>     d 4
| 38>       1      10.8969253000     79.1936470000  2
| 39>       2       4.6411649000     13.2308267000  2
| 40>       3      15.1847957000     35.4766256000  2
| 41>       4       7.5923978000      5.6176768000  2
| 42>     f 2
| 43>       1      15.1847957000    -35.4766256000  2
| 44>       2       7.5923978000     -5.6176768000  2
| 45>   end
| 46>   NewGTO 48
| 47>     s 4
| 48>      1     269.3001628900      0.0056022022
| 49>      2      18.5542690930     -3.8835034280
| 50>      3      16.7299431830      5.9019436241
| 51>      4      11.7685466460     -1.0539281102
| 52>     s 1
| 53>      1       6.1816604427      1.0000000000
| 54>     s 1
| 55>      1       1.5775743989      1.0000000000
| 56>     s 1
| 57>      1       0.7185798119      1.0000000000
| 58>     s 1
| 59>      1       0.1643313841      1.0000000000
| 60>     s 1
| 61>      1       0.0767941588      1.0000000000
| 62>     s 1
| 63>      1       0.0343771998      1.0000000000
| 64>     p 4
| 65>      1      14.1076781800      0.0859782162
| 66>      2       8.2750040714     -0.3237584015
| 67>      3       2.2507338323      0.5808106806
| 68>      4       1.1914970238      0.5665293787
| 69>     p 1
| 70>      1       0.6604125770      1.0000000000
| 71>     p 1
| 72>      1       0.3380440377      1.0000000000
| 73>     p 1
| 74>      1       0.0960040379      1.0000000000
| 75>     p 1
| 76>      1       0.0336810300      1.0000000000
| 77>     d 4
| 78>      1      35.6891925480      0.0046039568
| 79>      2       9.3407971610     -0.0405812523
| 80>      3       3.5922659140      0.3234869180
| 81>      4       1.7980676976      0.7369880702
| 82>     d 1
| 83>      1       0.8483005779      1.0000000000
| 84>     d 1
| 85>      1       0.3784649275      1.0000000000
| 86>     d 1
| 87>      1       0.1542010163      1.0000000000
| 88>   end
| 89>   NewAuxGTO 48
| 90>     S 1
| 91>      1 1310.72 1.0
| 92>     S 1
| 93>      1  655.36 1.0
| 94>     S 1
| 95>      1  327.68 1.0
| 96>     S 1
| 97>      1  163.84 1.0
| 98>     S 1
| 99>      1   81.82 1.0
|100>     S 1
|101>      1   40.96 1.0
|102>     S 1
|103>      1   20.48 1.0
|104>     S 1
|105>      1   10.24 1.0
|106>     S 1
|107>      1    5.12 1.0
|108>     S 1
|109>      1    2.56 1.0
|110>     S 1
|111>      1    1.28 1.0
|112>     S 1
|113>      1    0.64 1.0
|114>     S 1
|115>      1    0.32 1.0
|116>     S 1
|117>      1    0.16 1.0
|118>     S 1
|119>      1    0.08 1.0
|120>     S 1
|121>      1    0.04 1.0
|122>     S 1
|123>      1    0.02 1.0
|124>     S 1
|125>      1    0.01 1.0
|126>   end
|127> end
|128>
|129> * xyz 0 1
|130> 48  0.0 0.0 0.0
|131> *
|132>
|133>
|134>                          ****END OF INPUT****

CARTESIAN COORDINATES (ANGSTROEM)
---------------------------------
  Cd     0.000000    0.000000    0.000000

 Total Charge           Charge          ....    0
 Multiplicity           Mult            ....    1
 Number of Electrons    NEL             ....   20
 Basis Dimension        Dim             ....   42

ORBITAL ENERGIES
----------------

  NO   OCC          E(Eh)            E(eV)
   0   2.0000      -4.551371      -123.8491
   1   2.0000      -3.170076       -86.2622
   2   2.0000      -3.170076       -86.2622
   3   2.0000      -3.170076       -86.2622
   4   2.0000      -0.720368       -19.6022
   5   2.0000      -0.720446       -19.6043
   6   2.0000      -0.720368       -19.6022
   7   2.0000      -0.720368       -19.6022
   8   2.0000      -0.720367       -19.6022
   9   2.0000      -0.534544       -14.5457
  10   0.0000       0.041067         1.1175
  11   0.0000       0.041067         1.1175
  12   0.0000       0.041067         1.1175
  13   0.0000       0.101795         2.7700
  14   0.0000       0.203063         5.5256

CleanUpVectors: The d-vectors have cracked symmetry at i=4
CleanUpVectors: The d-vectors have cracked symmetry at i=5
CleanUpVectors: The d-vectors have cracked symmetry at i=6
CleanUpVectors: The d-vectors have cracked symmetry at i=7
CleanUpVectors: The d-vectors have cracked symmetry at i=8
--------------------------
ATOM BASIS FOR ELEMENT Cd
--------------------------
 NewGTO Cd
 S 10
    1        269.300162890000         0.000827542336
    2         18.554269093000        -0.573660746721
    3         16.729943183000         0.871819337688
    4         11.768546646000        -0.155683443544
    5          6.181660442700        -0.693917913554
    6          1.577574398900         0.921130384612
    7          0.718579811900         0.512562547946
    8          0.164331384100        -0.068059103500
    9          0.076794158800        -0.141666183669
   10          0.034377199800        -0.056685420609
 D 25
    1        269.300162890000         0.000000000010
    2         18.554269093000        -0.000000099354
    3         16.729943183000         0.000000167458
    4         11.768546646000        -0.000000042510
    5          6.181660442700        -0.000000387482
    6          1.577574398900         0.000002561706
    7          0.718579811900         0.000004248085
    8          0.164331384100        -0.000024770549
    9          0.076794158800        -0.000077981684
   10          0.034377199800        -0.000074498984
   11         35.689192548000         0.000681239501
   12          9.340797161000        -0.006004737502
   13          3.592265914000         0.047865798070
   14          1.798067697600         0.109050846216
   15         35.689192548000         0.002117682105
   16          9.340797161000        -0.018666159464
   17          3.592265914000         0.148794284393
   18          1.798067697600         0.338992417962
   19         35.689192548000        -0.000380215363
   20          9.340797161000         0.003351381488
   21          3.592265914000        -0.026714997867
   22          1.798067697600        -0.060863774169
   23         35.689192548000        -0.000269641847
   24          9.340797161000         0.002376739035
   25          3.592265914000        -0.018945792500
 S 10
    1        269.300162890000         0.000208565856
    2         18.554269093000        -0.144579968634
    3         16.729943183000         0.219725008583
    4         11.768546646000        -0.039236966296
    5          6.181660442700        -0.199981243443
    6          1.577574398900         0.160181160135
    7          0.718579811900         1.055689544689
    8          0.164331384100        -4.573240675674
    9          0.076794158800         5.484430696463
   10          0.034377199800        -2.026809373961
 S 10
    1        269.300162890000         0.001263813347
    2         18.554269093000        -0.876088240229
    3         16.729943183000         1.331432686859
    4         11.768546646000        -0.237758003955
    5          6.181660442700        -1.142483617318
    6          1.577574398900         4.285905093706
    7          0.718579811900        -4.743272273761
    8          0.164331384100         3.382363259288
    9          0.076794158800        -2.685617913761
   10          0.034377199800         0.844244940908
 S 10
    1        269.300162890000         0.008472502652
    2         18.554269093000        -5.873224834968
    3         16.729943183000         8.925817244739
    4         11.768546646000        -1.593910464059
    5          6.181660442700        -3.092651010693
    6          1.577574398900         2.562933284947
    7          0.718579811900        -1.732318777367
    8          0.164331384100         0.868508593783
    9          0.076794158800        -0.681557269635
   10          0.034377199800         0.217966598871
 S 10
    1        269.300162890000         0.009579140454
    2         18.554269093000        -6.640357392144
    3         16.729943183000        10.091664832776
    4         11.768546646000        -1.802099430863
    5          6.181660442700        -1.203122051355
    6          1.577574398900         0.779666834447
    7          0.718579811900        -0.504760778362
    8          0.164331384100         0.250619795828
    9          0.076794158800        -0.197138713836
   10          0.034377199800         0.063196715258
 P 8
    1         14.107678180000        -0.067208183598
    2          8.275004071400         0.253078222031
    3          2.250733832300        -0.454013034725
    4          1.191497023800        -0.442849505141
    5          0.660412577000        -0.215268584953
    6          0.338044037700        -0.049513570502
    7          0.096004037900        -0.002078090772
    8          0.033681030000         0.000158893985
 D 25
    1         35.689192548000         0.000034111415
    2          9.340797161000        -0.000300672656
    3          3.592265914000         0.002396763660
    4          1.798067697600         0.005460456440
    5         35.689192548000         0.000332304762
    6          9.340797161000        -0.002929076877
    7          3.592265914000         0.023348664664
    8          1.798067697600         0.053194383931
    9         35.689192548000         0.001817628027
   10          9.340797161000        -0.016021353969
   11          3.592265914000         0.127711643277
   12          1.798067697600         0.290960630195
   13         35.689192548000         0.000468323943
   14          9.340797161000        -0.004128008343
   15          3.592265914000         0.032905753784
   16          1.798067697600         0.074967940372
   17         35.689192548000         0.001239577966
   18          9.340797161000        -0.010926172500
   19          3.592265914000         0.087096224667
   20          1.798067697600         0.198428050619
   21          0.848300577900         0.005797024838
   22          0.848300577900         0.056473148034
   23          0.848300577900         0.308894690128
   24          0.848300577900         0.079588770121
   25          0.848300577900         0.210658641919
 P 8
    1         14.107678180000        -0.016871733558
    2          8.275004071400         0.063531970407
    3          2.250733832300        -0.113974021371
    4          1.191497023800        -0.111171563596
    5          0.660412577000         0.008840583473
    6          0.338044037700        -0.147124735896
    7          0.096004037900         1.569061748833
    8          0.033681030000        -1.180283040949
 P 8
    1         14.107678180000        -0.022953174491
    2          8.275004071400         0.086432161668
    3          2.250733832300        -0.155056123366
    4          1.191497023800        -0.151243515604
    5          0.660412577000        -1.249763904967
    6          0.338044037700         2.592905513096
    7          0.096004037900        -1.563710756530
    8          0.033681030000         0.586482452932
 P 8
    1         14.107678180000        -0.198700022388
    2          8.275004071400         0.748222101707
    3          2.250733832300        -1.342282968162
    4          1.191497023800        -1.309278154470
    5          0.660412577000         4.589458407805
    6          0.338044037700        -3.106003645547
    7          0.096004037900         0.892962279682
    8          0.033681030000        -0.306434095002
 D 7
    1         35.689192548000         0.000894236343
    2          9.340797161000        -0.007882183137
    3          3.592265914000         0.062831553625
    4          1.798067697600         0.143146763833
    5          0.848300577900        -0.036479372845
    6          0.378464927500         0.531311740325
    7          0.154201016300        -1.278513803937
 D 7
    1         35.689192548000         0.001239996954
    2          9.340797161000        -0.010929865643
    3          3.592265914000         0.087125663964
    4          1.798067697600         0.198495121060
    5          0.848300577900         0.970524118683
    6          0.378464927500        -2.066328127617
    7          0.154201016300         0.959784633443
 D 7
    1         35.689192548000         0.007197004746
    2          9.340797161000        -0.063437490420
    3          3.592265914000         0.505681739687
    4          1.798067697600         1.152075675182
    5          0.848300577900        -2.486557637191
    6          0.378464927500         1.637820559555
    7          0.154201016300        -0.512931568819
 end
  // -----------------------------------------------
  // The basis set
  // -----------------------------------------------
  BAS[ATNO] = new BFNGauss[NSH];
  // Basis function   1 L = s
  InitBFNGauss(BAS[ATNO][  0]);
  BAS[ATNO][  0].l  = 0;
  BAS[ATNO][  0].ng = 10;
  BAS[ATNO][  0].a[  0] =       269.300162890000;     BAS[ATNO][  0].d[  0] =         0.000827542336;
  BAS[ATNO][  0].a[  1] =        18.554269093000;     BAS[ATNO][  0].d[  1] =        -0.573660746721;
  BAS[ATNO][  0].a[  2] =        16.729943183000;     BAS[ATNO][  0].d[  2] =         0.871819337688;
  BAS[ATNO][  0].a[  3] =        11.768546646000;     BAS[ATNO][  0].d[  3] =        -0.155683443544;
  BAS[ATNO][  0].a[  4] =         6.181660442700;     BAS[ATNO][  0].d[  4] =        -0.693917913554;
  BAS[ATNO][  0].a[  5] =         1.577574398900;     BAS[ATNO][  0].d[  5] =         0.921130384612;
  BAS[ATNO][  0].a[  6] =         0.718579811900;     BAS[ATNO][  0].d[  6] =         0.512562547946;
  BAS[ATNO][  0].a[  7] =         0.164331384100;     BAS[ATNO][  0].d[  7] =        -0.068059103500;
  BAS[ATNO][  0].a[  8] =         0.076794158800;     BAS[ATNO][  0].d[  8] =        -0.141666183669;
  BAS[ATNO][  0].a[  9] =         0.034377199800;     BAS[ATNO][  0].d[  9] =        -0.056685420609;

FINAL SINGLE POINT ENERGY      -166.884913390297

DIPOLE MOMENT
-------------
                                X             Y             Z
Electronic contribution:     -0.00000      -0.00000      -0.00000
Nuclear contribution   :      0.00000       0.00000       0.00000
                        -----------------------------------------
Total Dipole Moment    :     -0.00000      -0.00000      -0.00000
                        -----------------------------------------
Magnitude (a.u.)       :      0.00000
Magnitude (Debye)      :      0.00000

Rotational constants in cm-1:     0.000000     0.000000     0.000000
Rotational constants in MHz :     0.000000     0.000000     0.000000

                             ****ORCA TERMINATED NORMALLY****
TOTAL RUN TIME: 0 days 0 hours 0 minutes 1 seconds 435 msec
