                         Program Version 4.2.0 -  RELEASE  -
|  1> #
|  2> # 48_Cd CCSD(T)/Def2-QZVPPD
|  3> #
|  4> ! CCSD(T) Def2-QZVPPD tightscf
|  5>
|  6> *xyz 0 1
|  7>  Cd 0.0 0.0 0.0
|  8> *
|  9>
| 10> %maxcore 5000
| 11>
| 12> %pal
| 13> nprocs 24
| 14> end
| 15>
| 16>
| 17>                          ****END OF INPUT****

CARTESIAN COORDINATES (ANGSTROEM)
---------------------------------
  Cd     0.000000    0.000000    0.000000

 Total Charge           Charge          ....    0
 Multiplicity           Mult            ....    1
 Number of Electrons    NEL             ....   20
 Basis Dimension        Dim             ....   88

ORBITAL ENERGIES
----------------

  NO   OCC          E(Eh)            E(eV)
   0   2.0000      -4.804686      -130.7422
   1   2.0000      -3.170102       -86.2629
   2   2.0000      -3.170102       -86.2629
   3   2.0000      -3.170102       -86.2629
   4   2.0000      -0.720393       -19.6029
   5   2.0000      -0.720393       -19.6029
   6   2.0000      -0.720393       -19.6029
   7   2.0000      -0.720393       -19.6029
   8   2.0000      -0.720393       -19.6029
   9   2.0000      -0.281332        -7.6554
  10   0.0000       0.041066         1.1175
  11   0.0000       0.041066         1.1175
  12   0.0000       0.041066         1.1175
  13   0.0000       0.101797         2.7700
  14   0.0000       0.203058         5.5255

E(0)                                       ...   -166.884913420
E(0)                                       ...   -166.884913420
E(CORR)                                    ...     -0.756899224
E(TOT)                                     ...   -167.641812645
E(CCSD(T))                                 ...   -167.667712344

MULLIKEN ATOMIC CHARGES
-----------------------
   0 Cd:   -0.000000
Sum of atomic charges:   -0.0000000

LOEWDIN ATOMIC CHARGES
----------------------
   0 Cd:   -0.000000

FINAL SINGLE POINT ENERGY      -167.667712344221

DIPOLE MOMENT
-------------
                                X             Y             Z
Electronic contribution:     -0.00000      -0.00000      -0.00000
Nuclear contribution   :      0.00000       0.00000       0.00000
                        -----------------------------------------
Total Dipole Moment    :     -0.00000      -0.00000      -0.00000
                        -----------------------------------------
Magnitude (a.u.)       :      0.00000
Magnitude (Debye)      :      0.00000

Rotational constants in cm-1:     0.000000     0.000000     0.000000
Rotational constants in MHz :     0.000000     0.000000     0.000000

                             ****ORCA TERMINATED NORMALLY****
TOTAL RUN TIME: 0 days 0 hours 0 minutes 12 seconds 628 msec
