                         Program Version 4.2.0 -  RELEASE  -
|  1> # input to generate an atomic fitting density for In
|  2> # this file is use internally by ORCA
|  3> #
|  4> # atomic ground state (S=2): 1s2 2s2 2p6 3s2 3p6 4s2 3d10 4p6 5s2 4d10 5p1
|  5> #
|  6> ! RHF AllowRHF def2-SVP def2/J  NoMulliken NoLoewdin NoMayer NoPrintMOs
|  7>
|  8> %output print[p_atomdensfit] 2 end
|  9>
| 10> %scf
| 11>   guess hcore
| 12>   maxiter 1000
| 13>   maxdisk 500000
| 14>   SCFMode Conventional
| 15>   lshift 1.000000
| 16>   hftyp rohf
| 17>   rohf_case sahf
| 18>   rohf_numop   2
| 19>   rohf_norb[1] 3
| 20>   rohf_nel[1]  1
| 21> end
| 22>
| 23> %basis
| 24>   NewECP 49
| 25>     N_core 28
| 26>     lmax f
| 27>     s 4
| 28>       1      15.3928220000    281.1223500000  2
| 29>       2       8.0558640000     61.9014700000  2
| 30>       3      12.5390560000     13.7280780000  2
| 31>       4      12.5525610000     18.2068660000  2
| 32>     p 6
| 33>       1      13.9286720000     67.4621540000  2
| 34>       2      13.3472340000    134.9492500000  2
| 35>       3       7.6141320000     14.7461400000  2
| 36>       4       7.3183650000     29.6392620000  2
| 37>       5      12.5390560000     13.7280780000  2
| 38>       6      12.5525610000     18.2068660000  2
| 39>     d 6
| 40>       1      14.0347150000     35.4932540000  2
| 41>       2      14.5116160000     53.1787730000  2
| 42>       3       5.5505500000      9.1772810000  2
| 43>       4       5.0594150000     12.3924100000  2
| 44>       5      12.5390560000     13.7280780000  2
| 45>       6      12.5525610000     18.2068660000  2
| 46>     f 2
| 47>       1      12.5390560000    -13.7280780000  2
| 48>       2      12.5525610000    -18.2068660000  2
| 49>   end
| 50>   NewGTO 49
| 51>     s 9
| 52>      1    8931.8400000000      0.0000507998
| 53>      2    1352.2200000000      0.0003502510
| 54>      3     303.3930000000      0.0012780152
| 55>      4      45.1229000000      0.0313033509
| 56>      5      28.1822000000     -0.2334917695
| 57>      6      17.6048000000      0.6940237380
| 58>      7       6.9405800000     -1.6803252701
| 59>      8       4.3337700000     -0.4243598610
| 60>      9       1.9868400000      1.8031350428
| 61>     s 1
| 62>      1       1.0438672413      1.0000000000
| 63>     s 3
| 64>      1      20.2455442080      0.0652669088
| 65>      2      11.0722984160     -0.3245785096
| 66>      3       2.4929238916      1.1717562992
| 67>     s 1
| 68>      1       0.5324448416      1.0000000000
| 69>     s 1
| 70>      1       0.2121130741      1.0000000000
| 71>     s 1
| 72>      1       0.0954751965      1.0000000000
| 73>     s 1
| 74>      1       0.0423576449      1.0000000000
| 75>     p 7
| 76>      1     129.2330000000      0.0002845734
| 77>      2      29.6284000000     -0.0062942748
| 78>      3      18.5211000000      0.0478491362
| 79>      4       8.2853600000     -0.2446964355
| 80>      5       2.4993900000      0.4383971073
| 81>      6       1.3221600000      0.4958115829
| 82>      7       0.6887070000      0.2264725158
| 83>     p 3
| 84>      1      13.2486330340     -0.0188262283
| 85>      2       3.0240161259      0.3255462819
| 86>      3       1.0805448379      0.7438199030
| 87>     p 1
| 88>      1       0.3335358151      1.0000000000
| 89>     p 1
| 90>      1       0.1540376045      1.0000000000
| 91>     p 1
| 92>      1       0.0657704246      1.0000000000
| 93>     p 1
| 94>      1       0.0276421803      1.0000000000
| 95>     s 1
| 96>      1       0.0183493889      1.0000000000
| 97>   end
| 98>   NewAuxGTO 49
| 99>     S 1
|100>      1 1310.72 1.0
|101>     S 1
|102>      1  655.36 1.0
|103>     S 1
|104>      1  327.68 1.0
|105>     S 1
|106>      1  163.84 1.0
|107>     S 1
|108>      1   81.82 1.0
|109>     S 1
|110>      1   40.96 1.0
|111>     S 1
|112>      1   20.48 1.0
|113>     S 1
|114>      1   10.24 1.0
|115>     S 1
|116>      1    5.12 1.0
|117>     S 1
|118>      1    2.56 1.0
|119>     S 1
|120>      1    1.28 1.0
|121>     S 1
|122>      1    0.64 1.0
|123>     S 1
|124>      1    0.32 1.0
|125>     S 1
|126>      1    0.16 1.0
|127>     S 1
|128>      1    0.08 1.0
|129>     S 1
|130>      1    0.04 1.0
|131>     S 1
|132>      1    0.02 1.0
|133>     S 1
|134>      1    0.01 1.0
|135>   end
|136> end
|137>
|138> * xyz 0 2
|139> 49  0.0 0.0 0.0
|140> *
|141>
|142>
|143>                          ****END OF INPUT****

CARTESIAN COORDINATES (ANGSTROEM)
---------------------------------
  In     0.000000    0.000000    0.000000

 Total Charge           Charge          ....    0
 Multiplicity           Mult            ....    2
 Number of Electrons    NEL             ....   21
 Basis Dimension        Dim             ....   26

ORBITAL ENERGIES
----------------

  NO   OCC          E(Eh)            E(eV)
   0   2.0000      -9.061576      -246.5780
   1   2.0000      -6.999605      -190.4689
   2   2.0000      -6.999605      -190.4689
   3   2.0000      -6.992066      -190.2638
   4   2.0000      -2.154817       -58.6356
   5   2.0000      -1.391383       -37.8615
   6   2.0000      -1.391383       -37.8615
   7   2.0000      -1.373012       -37.3616
   8   2.0000      -0.363467        -9.8904
   9   2.0000      -0.187444        -5.1006
  10   0.3333      -0.202775        -5.5178
  11   0.3333      -0.202775        -5.5178
  12   0.3333      -0.077923        -2.1204
  13   0.0000      -0.015838        -0.4310
  14   0.0000      -0.015838        -0.4310
  15   0.0000      -0.002209        -0.0601
  16   0.0000       0.099276         2.7014
  17   0.0000       0.360962         9.8223

CleanUpVectors: The p-vectors have cracked symmetry
CleanUpVectors: The p-vectors have cracked symmetry
CleanUpVectors: The p-vectors have cracked symmetry
CleanUpVectors: The p-vectors have cracked symmetry
CleanUpVectors: The p-vectors have cracked symmetry
CleanUpVectors: The p-vectors have cracked symmetry
CleanUpVectors: The p-vectors have cracked symmetry
CleanUpVectors: The p-vectors have cracked symmetry
CleanUpVectors: The p-vectors have cracked symmetry
CleanUpVectors: The p-vectors have cracked symmetry
CleanUpVectors: The p-vectors have cracked symmetry
CleanUpVectors: The p-vectors have cracked symmetry
CleanUpVectors: The p-vectors have cracked symmetry
CleanUpVectors: The p-vectors have cracked symmetry
CleanUpVectors: The p-vectors have cracked symmetry
CleanUpVectors: The p-vectors have cracked symmetry
CleanUpVectors: The p-vectors have cracked symmetry
--------------------------
ATOM BASIS FOR ELEMENT In
--------------------------
 NewGTO In
 S 18
    1       8931.840000000000        -0.000020933851
    2       1352.220000000000        -0.000144333293
    3        303.393000000000        -0.000526651294
    4         45.122900000000        -0.012899651156
    5         28.182200000000         0.096218528938
    6         17.604800000000        -0.285996989364
    7          6.940580000000         0.692437365017
    8          4.333770000000         0.174872466182
    9          1.986840000000        -0.743045468650
   10          1.043867241300        -0.718993783973
   11         20.245544208000        -0.006482054782
   12         11.072298416000         0.032235871424
   13          2.492923891600        -0.116374264729
   14          0.532444841600         0.169589505781
   15          0.212113074100        -0.102841901961
   16          0.095475196500         0.064946944479
   17          0.042357644900        -0.030513788865
   18          0.018349388900         0.008299227278
 P 32
    1        129.233000000000        -0.000241698770
    2         29.628400000000         0.005345961633
    3         18.521100000000        -0.040640050593
    4          8.285360000000         0.207829781444
    5          2.499390000000        -0.372346964555
    6          1.322160000000        -0.421111213577
    7          0.688707000000        -0.192351528806
    8        129.233000000000         0.000151641897
    9         29.628400000000        -0.003354058297
   10         18.521100000000         0.025497582703
   11          8.285360000000        -0.130392481388
   12          2.499390000000         0.233610622637
   13          1.322160000000         0.264205330425
   14          0.688707000000         0.120681419985
   15        129.233000000000         0.000083854422
   16         29.628400000000        -0.001854715772
   17         18.521100000000         0.014099566733
   18          8.285360000000        -0.072103991746
   19          2.499390000000         0.129181209125
   20          1.322160000000         0.146099366785
   21          0.688707000000         0.066734001975
   22         13.248633034000         0.000843450631
   23          3.024016125900        -0.014585089084
   24          1.080544837900        -0.033324538325
   25         13.248633034000        -0.000529181236
   26          3.024016125900         0.009150690261
   27          1.080544837900         0.020907827613
   28         13.248633034000        -0.000292624844
   29          3.024016125900         0.005060117639
   30          1.080544837900         0.011561539543
   31          0.333535815100         0.208309566657
   32          0.333535815100        -0.130693498807
 S 18
    1       8931.840000000000        -0.000012908781
    2       1352.220000000000        -0.000089002582
    3        303.393000000000        -0.000324757539
    4         45.122900000000        -0.007954521346
    5         28.182200000000         0.059332793812
    6         17.604800000000        -0.176358967322
    7          6.940580000000         0.426988895587
    8          4.333770000000         0.107834448249
    9          1.986840000000        -0.458196192261
   10          1.043867241300        -1.344409963290
   11         20.245544208000        -0.014421896941
   12         11.072298416000         0.071721457332
   13          2.492923891600        -0.258920621454
   14          0.532444841600         1.620134611484
   15          0.212113074100         0.437082493605
   16          0.095475196500         0.001143174205
   17          0.042357644900        -0.007645348326
   18          0.018349388900         0.003104463136
 P 32
    1        129.233000000000        -0.000110351097
    2         29.628400000000         0.002440776722
    3         18.521100000000        -0.018554807583
    4          8.285360000000         0.094887716635
    5          2.499390000000        -0.170000435054
    6          1.322160000000        -0.192264463871
    7          0.688707000000        -0.087820894738
    8        129.233000000000         0.000084291251
    9         29.628400000000        -0.001864377689
   10         18.521100000000         0.014173016721
   11          8.285360000000        -0.072479608773
   12          2.499390000000         0.129854163014
   13          1.322160000000         0.146860453772
   14          0.688707000000         0.067081644690
   15        129.233000000000        -0.000008355687
   16         29.628400000000         0.000184813445
   17         18.521100000000        -0.001404953547
   18          8.285360000000         0.007184813611
   19          2.499390000000        -0.012872281924
   20          1.322160000000        -0.014558094408
   21          0.688707000000        -0.006649720135
   22         13.248633034000         0.003358113726
   23          3.024016125900        -0.058069063032
   24          1.080544837900        -0.132678292561
   25         13.248633034000        -0.002565081949
   26          3.024016125900         0.044355825176
   27          1.080544837900         0.101345791411
   28         13.248633034000         0.000254273388
   29          3.024016125900        -0.004396937868
   30          1.080544837900        -0.010046282449
   31          0.333535815100         1.189379673477
   32          0.333535815100        -0.908502980927
 S 18
    1       8931.840000000000        -0.000002653897
    2       1352.220000000000        -0.000018297906
    3        303.393000000000        -0.000066766412
    4         45.122900000000        -0.001635358021
    5         28.182200000000         0.012198139407
    6         17.604800000000        -0.036257373550
    7          6.940580000000         0.087784001710
    8          4.333770000000         0.022169521239
    9          1.986840000000        -0.094199862667
   10          1.043867241300        -0.424702595544
   11         20.245544208000        -0.003408947354
   12         11.072298416000         0.016953017565
   13          2.492923891600        -0.061201849584
   14          0.532444841600         0.741354487067
   15          0.212113074100         0.073751791519
   16          0.095475196500        -0.131468234114
   17          0.042357644900        -1.882791246989
   18          0.018349388900         2.171325274264
 S 18
    1       8931.840000000000         0.000003783563
    2       1352.220000000000         0.000026086652
    3        303.393000000000         0.000095186417
    4         45.122900000000         0.002331469774
    5         28.182200000000        -0.017390438641
    6         17.604800000000         0.051690803736
    7          6.940580000000        -0.125150422087
    8          4.333770000000        -0.031606270920
    9          1.986840000000         0.134297279046
   10          1.043867241300         0.393818222332
   11         20.245544208000         0.007908255315
   12         11.072298416000        -0.039328501546
   13          2.492923891600         0.141979268688
   14          0.532444841600        -0.336701788525
   15          0.212113074100        -2.851006048956
   16          0.095475196500         6.986086816274
   17          0.042357644900        -6.749842269370
   18          0.018349388900         2.584588398033
 S 18
    1       8931.840000000000        -0.000012814248
    2       1352.220000000000        -0.000088350805
    3        303.393000000000        -0.000322379298
    4         45.122900000000        -0.007896269376
    5         28.182200000000         0.058898292227
    6         17.604800000000        -0.175067468205
    7          6.940580000000         0.423862001674
    8          4.333770000000         0.107044762889
    9          1.986840000000        -0.454840763351
   10          1.043867241300        -3.350123899748
   11         20.245544208000        -0.007239547566
   12         11.072298416000         0.036002954673
   13          2.492923891600        -0.129973758830
   14          0.532444841600         8.197636196645
   15          0.212113074100       -10.149991304701
   16          0.095475196500         8.630414143124
   17          0.042357644900        -4.369385690277
   18          0.018349388900         1.160711822251
 S 18
    1       8931.840000000000        -0.000008974992
    2       1352.220000000000        -0.000061880163
    3        303.393000000000        -0.000225791758
    4         45.122900000000        -0.005530480871
    5         28.182200000000         0.041251870091
    6         17.604800000000        -0.122615787019
    7          6.940580000000         0.296869392444
    8          4.333770000000         0.074973254497
    9          1.986840000000        -0.318566657405
   10          1.043867241300        -9.806740851242
   11         20.245544208000         0.287506219044
   12         11.072298416000        -1.429795616090
   13          2.492923891600         5.161684985821
   14          0.532444841600         9.412359450882
   15          0.212113074100        -5.832980952405
   16          0.095475196500         3.729657967159
   17          0.042357644900        -1.727540404151
   18          0.018349388900         0.462148125666
 S 18
    1       8931.840000000000        -0.000063590401
    2       1352.220000000000        -0.000438438762
    3        303.393000000000        -0.001599799577
    4         45.122900000000        -0.039185048447
    5         28.182200000000         0.292281370420
    6         17.604800000000        -0.868768135516
    7          6.940580000000         2.103405073972
    8          4.333770000000         0.531207082760
    9          1.986840000000        -2.257136439932
   10          1.043867241300         6.165290145614
   11         20.245544208000        -0.145655742461
   12         11.072298416000         0.724359781581
   13          2.492923891600        -2.615001030107
   14          0.532444841600        -4.643454178743
   15          0.212113074100         2.582913717533
   16          0.095475196500        -1.621434021341
   17          0.042357644900         0.752173505685
   18          0.018349388900        -0.202218343658
 P 32
    1        129.233000000000        -0.000080461566
    2         29.628400000000         0.001779671640
    3         18.521100000000        -0.013529080536
    4          8.285360000000         0.069186573585
    5          2.499390000000        -0.123954374985
    6          1.322160000000        -0.140188002716
    7          0.688707000000        -0.064033860351
    8        129.233000000000        -0.000108819818
    9         29.628400000000         0.002406907459
   10         18.521100000000        -0.018297333131
   11          8.285360000000         0.093571014062
   12          2.499390000000        -0.167641436248
   13          1.322160000000        -0.189596519872
   14          0.688707000000        -0.086602254411
   15        129.233000000000        -0.000035130144
   16         29.628400000000         0.000777018449
   17         18.521100000000        -0.005906901558
   18          8.285360000000         0.030207394966
   19          2.499390000000        -0.054119442096
   20          1.322160000000        -0.061207169948
   21          0.688707000000        -0.027957680379
   22         13.248633034000         0.002460069219
   23          3.024016125900        -0.042539927530
   24          1.080544837900        -0.097196762882
   25         13.248633034000         0.003327107553
   26          3.024016125900        -0.057532899100
   27          1.080544837900        -0.131453245843
   28         13.248633034000         0.001074085313
   29          3.024016125900        -0.018573262501
   30          1.080544837900        -0.042436860993
   31          0.333535815100         0.875344491184
   32          0.333535815100         1.183855009004
 P 32
    1        129.233000000000         0.000027494541
    2         29.628400000000        -0.000608132022
    3         18.521100000000         0.004623025346
    4          8.285360000000        -0.023641760611
    5          2.499390000000         0.042356479129
    6          1.322160000000         0.047903675945
    7          0.688707000000         0.021881025739
    8        129.233000000000        -0.000007379225
    9         29.628400000000         0.000163215786
   10         18.521100000000        -0.001240767937
   11          8.285360000000         0.006345182288
   12          2.499390000000        -0.011368001967
   13          1.322160000000        -0.012856807118
   14          0.688707000000        -0.005872620878
   15        129.233000000000        -0.000040115062
   16         29.628400000000         0.000887276256
   17         18.521100000000        -0.006745082436
   18          8.285360000000         0.034493781086
   19          2.499390000000        -0.061798913486
   20          1.322160000000        -0.069892379778
   21          0.688707000000        -0.031924835219
   22         13.248633034000        -0.001038951472
   23          3.024016125900         0.017965722249
   24          1.080544837900         0.041048731081
   25         13.248633034000         0.000278842874
   26          3.024016125900        -0.004821797516
   27          1.080544837900        -0.011017017119
   28         13.248633034000         0.001515850076
   29          3.024016125900        -0.026212332511
   30          1.080544837900        -0.059890884062
   31          0.333535815100        -0.480311546905
   32          0.333535815100         0.128910209780
 P 32
    1        129.233000000000        -0.000016906883
    2         29.628400000000         0.000373951202
    3         18.521100000000        -0.002842780554
    4          8.285360000000         0.014537739313
    5          2.499390000000        -0.026045752765
    6          1.322160000000        -0.029456822801
    7          0.688707000000        -0.013455032107
    8        129.233000000000        -0.000022865624
    9         29.628400000000         0.000505748318
   10         18.521100000000        -0.003844703465
   11          8.285360000000         0.019661488338
   12          2.499390000000        -0.035225440023
   13          1.322160000000        -0.039838723581
   14          0.688707000000        -0.018197186727
   15        129.233000000000        -0.000007381676
   16         29.628400000000         0.000163269997
   17         18.521100000000        -0.001241180052
   18          8.285360000000         0.006347289808
   19          2.499390000000        -0.011371777791
   20          1.322160000000        -0.012861077442
   21          0.688707000000        -0.005874571439
   22         13.248633034000         0.000627028094
   23          3.024016125900        -0.010842674462
   24          1.080544837900        -0.024773734228
   25         13.248633034000         0.000848020817
   26          3.024016125900        -0.014664117502
   27          1.080544837900        -0.033505105308
   28         13.248633034000         0.000273765332
   29          3.024016125900        -0.004733995817
   30          1.080544837900        -0.010816404626
   31          0.333535815100         0.243357877437
   32          0.333535815100         0.329128069104
 P 32
    1        129.233000000000        -0.000050396531
    2         29.628400000000         0.001114684701
    3         18.521100000000        -0.008473843579
    4          8.285360000000         0.043334519355
    5          2.499390000000        -0.077637943081
    6          1.322160000000        -0.087805760602
    7          0.688707000000        -0.040107153990
    8        129.233000000000        -0.000068158521
    9         29.628400000000         0.001507549405
   10         18.521100000000        -0.011460404752
   11          8.285360000000         0.058607540594
   12          2.499390000000        -0.105001023861
   13          1.322160000000        -0.118752434675
   14          0.688707000000        -0.054242707443
   15        129.233000000000        -0.000022003517
   16         29.628400000000         0.000486679991
   17         18.521100000000        -0.003699745870
   18          8.285360000000         0.018920187458
   19          2.499390000000        -0.033897328477
   20          1.322160000000        -0.038336676516
   21          0.688707000000        -0.017511094693
   22         13.248633034000         0.002266132135
   23          3.024016125900        -0.039186335105
   24          1.080544837900        -0.089534353783
   25         13.248633034000         0.003064818373
   26          3.024016125900        -0.052997350832
   27          1.080544837900        -0.121090261344
   28         13.248633034000         0.000989410877
   29          3.024016125900        -0.017109058021
   30          1.080544837900        -0.039091393714
   31          0.333535815100         1.525301867021
   32          0.333535815100         2.062886410661
 P 32
    1        129.233000000000        -0.001002620306
    2         29.628400000000         0.022176238971
    3         18.521100000000        -0.168583977130
    4          8.285360000000         0.862124200396
    5          2.499390000000        -1.544578100677
    6          1.322160000000        -1.746863061496
    7          0.688707000000        -0.797916962692
    8        129.233000000000        -0.001355988507
    9         29.628400000000         0.029992136604
   10         18.521100000000        -0.228000504407
   11          8.285360000000         1.165975295508
   12          2.499390000000        -2.088956447974
   13          1.322160000000        -2.362535668764
   14          0.688707000000        -1.079138557923
   15        129.233000000000        -0.000437751807
   16         29.628400000000         0.009682318061
   17         18.521100000000        -0.073605072920
   18          8.285360000000         0.376410117477
   19          2.499390000000        -0.674374787369
   20          1.322160000000        -0.762693971346
   21          0.688707000000        -0.348376739135
   22         13.248633034000        -0.065977720979
   23          3.024016125900         1.140897762980
   24          1.080544837900         2.606764415923
   25         13.248633034000        -0.089231218286
   26          3.024016125900         1.543001119472
   27          1.080544837900         3.525504688047
   28         13.248633034000        -0.028806385081
   29          3.024016125900         0.498124818669
   30          1.080544837900         1.138133577020
   31          0.333535815100         0.125898042981
   32          0.333535815100         0.170270139501
 end
  // -----------------------------------------------
  // The basis set
  // -----------------------------------------------
  BAS[ATNO] = new BFNGauss[NSH];
  // Basis function   1 L = s
  InitBFNGauss(BAS[ATNO][  0]);
  BAS[ATNO][  0].l  = 0;
  BAS[ATNO][  0].ng = 18;
  BAS[ATNO][  0].a[  0] =      8931.840000000000;     BAS[ATNO][  0].d[  0] =         0.000020933851;
  BAS[ATNO][  0].a[  1] =      1352.220000000000;     BAS[ATNO][  0].d[  1] =         0.000144333293;
  BAS[ATNO][  0].a[  2] =       303.393000000000;     BAS[ATNO][  0].d[  2] =         0.000526651294;
  BAS[ATNO][  0].a[  3] =        45.122900000000;     BAS[ATNO][  0].d[  3] =         0.012899651156;
  BAS[ATNO][  0].a[  4] =        28.182200000000;     BAS[ATNO][  0].d[  4] =        -0.096218528938;
  BAS[ATNO][  0].a[  5] =        17.604800000000;     BAS[ATNO][  0].d[  5] =         0.285996989364;
  BAS[ATNO][  0].a[  6] =         6.940580000000;     BAS[ATNO][  0].d[  6] =        -0.692437365017;
  BAS[ATNO][  0].a[  7] =         4.333770000000;     BAS[ATNO][  0].d[  7] =        -0.174872466182;
  BAS[ATNO][  0].a[  8] =         1.986840000000;     BAS[ATNO][  0].d[  8] =         0.743045468650;
  BAS[ATNO][  0].a[  9] =         1.043867241300;     BAS[ATNO][  0].d[  9] =         0.718993783973;
  BAS[ATNO][  0].a[ 10] =        20.245544208000;     BAS[ATNO][  0].d[ 10] =         0.006482054782;
  BAS[ATNO][  0].a[ 11] =        11.072298416000;     BAS[ATNO][  0].d[ 11] =        -0.032235871424;
  BAS[ATNO][  0].a[ 12] =         2.492923891600;     BAS[ATNO][  0].d[ 12] =         0.116374264729;
  BAS[ATNO][  0].a[ 13] =         0.532444841600;     BAS[ATNO][  0].d[ 13] =        -0.169589505781;
  BAS[ATNO][  0].a[ 14] =         0.212113074100;     BAS[ATNO][  0].d[ 14] =         0.102841901961;
  BAS[ATNO][  0].a[ 15] =         0.095475196500;     BAS[ATNO][  0].d[ 15] =        -0.064946944479;
  BAS[ATNO][  0].a[ 16] =         0.042357644900;     BAS[ATNO][  0].d[ 16] =         0.030513788865;
  BAS[ATNO][  0].a[ 17] =         0.018349388900;     BAS[ATNO][  0].d[ 17] =        -0.008299227278;

FINAL SINGLE POINT ENERGY      -170.500472244135

DIPOLE MOMENT
-------------
                                X             Y             Z
Electronic contribution:      0.00000      -0.00000      -0.00000
Nuclear contribution   :      0.00000       0.00000       0.00000
                        -----------------------------------------
Total Dipole Moment    :      0.00000      -0.00000      -0.00000
                        -----------------------------------------
Magnitude (a.u.)       :      0.00000
Magnitude (Debye)      :      0.00000

Rotational constants in cm-1:     0.000000     0.000000     0.000000
Rotational constants in MHz :     0.000000     0.000000     0.000000

                             ****ORCA TERMINATED NORMALLY****
TOTAL RUN TIME: 0 days 0 hours 0 minutes 1 seconds 360 msec
