                         Program Version 4.2.0 -  RELEASE  -
|  1> #
|  2> # 49_In CCSD(T)/Def2-QZVPPD
|  3> #
|  4> ! CCSD(T) Def2-QZVPPD tightscf
|  5>
|  6> *xyz 0 2
|  7>  In 0.0 0.0 0.0
|  8> *
|  9>
| 10> %maxcore 5000
| 11>
| 12> %pal
| 13> nprocs 24
| 14> end
| 15>
| 16>
| 17>                          ****END OF INPUT****

CARTESIAN COORDINATES (ANGSTROEM)
---------------------------------
  In     0.000000    0.000000    0.000000

 Total Charge           Charge          ....    0
 Multiplicity           Mult            ....    2
 Number of Electrons    NEL             ....   21
 Basis Dimension        Dim             ....   88

ORBITAL ENERGIES
----------------
                 SPIN UP ORBITALS
  NO   OCC          E(Eh)            E(eV)
   0   1.0000      -5.373567      -146.2222
   1   1.0000      -3.627302       -98.7039
   2   1.0000      -3.627302       -98.7039
   3   1.0000      -3.624254       -98.6210
   4   1.0000      -1.014825       -27.6148
   5   1.0000      -1.014825       -27.6148
   6   1.0000      -1.008225       -27.4352
   7   1.0000      -1.008225       -27.4352
   8   1.0000      -1.006187       -27.3797
   9   1.0000      -0.424428       -11.5493
  10   1.0000      -0.201617        -5.4863
  11   0.0000       0.010467         0.2848
  12   0.0000       0.010467         0.2848
  13   0.0000       0.032997         0.8979
  14   0.0000       0.077487         2.1085
  15   0.0000       0.077487         2.1085

                 SPIN DOWN ORBITALS
  NO   OCC          E(Eh)            E(eV)
   0   1.0000      -5.372758      -146.2002
   1   1.0000      -3.629095       -98.7527
   2   1.0000      -3.629095       -98.7527
   3   1.0000      -3.618053       -98.4522
   4   1.0000      -1.015639       -27.6369
   5   1.0000      -1.015639       -27.6369
   6   1.0000      -1.005414       -27.3587
   7   1.0000      -1.005414       -27.3587
   8   1.0000      -1.002215       -27.2717
   9   1.0000      -0.368858       -10.0371
  10   0.0000       0.018049         0.4911
  11   0.0000       0.018049         0.4911
  12   0.0000       0.035854         0.9756
  13   0.0000       0.042490         1.1562
  14   0.0000       0.078079         2.1246

E(0)                                       ...   -189.210661278
E(0)                                       ...   -189.210661278
E(CORR)                                    ...     -0.407282498
E(TOT)                                     ...   -189.617943776
E(CCSD(T))                                 ...   -189.628074579

MULLIKEN ATOMIC CHARGES AND SPIN DENSITIES
------------------------------------------
   0 In:   -0.000000    1.000000
Sum of atomic charges       :   -0.0000000

LOEWDIN ATOMIC CHARGES AND SPIN DENSITIES
-----------------------------------------
   0 In:   -0.000000    1.000000

FINAL SINGLE POINT ENERGY      -189.628074579465

DIPOLE MOMENT
-------------
                                X             Y             Z
Electronic contribution:     -0.00000      -0.00000       0.00000
Nuclear contribution   :      0.00000       0.00000       0.00000
                        -----------------------------------------
Total Dipole Moment    :     -0.00000      -0.00000       0.00000
                        -----------------------------------------
Magnitude (a.u.)       :      0.00000
Magnitude (Debye)      :      0.00000

Rotational constants in cm-1:     0.000000     0.000000     0.000000
Rotational constants in MHz :     0.000000     0.000000     0.000000

                             ****ORCA TERMINATED NORMALLY****
TOTAL RUN TIME: 0 days 0 hours 0 minutes 25 seconds 387 msec
