                         Program Version 4.2.0 -  RELEASE  -
|  1> # input to generate an atomic fitting density for Sn
|  2> # this file is use internally by ORCA
|  3> #
|  4> # atomic ground state (S=3): 1s2 2s2 2p6 3s2 3p6 4s2 3d10 4p6 5s2 4d10 5p2
|  5> #
|  6> ! RHF AllowRHF def2-SVP def2/J  NoMulliken NoLoewdin NoMayer NoPrintMOs
|  7>
|  8> %output print[p_atomdensfit] 2 end
|  9>
| 10> %scf
| 11>   guess hcore
| 12>   maxiter 1000
| 13>   maxdisk 500000
| 14>   SCFMode Conventional
| 15>   lshift 1.000000
| 16>   hftyp rohf
| 17>   rohf_case sahf
| 18>   rohf_numop   2
| 19>   rohf_norb[1] 3
| 20>   rohf_nel[1]  2
| 21> end
| 22>
| 23> %basis
| 24>   NewECP 50
| 25>     N_core 28
| 26>     lmax f
| 27>     s 4
| 28>       1      17.4204140000    279.9886820000  2
| 29>       2       7.6311550000     62.3778100000  2
| 30>       3      12.2823480000     12.5763330000  2
| 31>       4      12.2721500000     16.5959440000  2
| 32>     p 6
| 33>       1      16.1310240000     66.1625230000  2
| 34>       2      15.6280770000    132.1743960000  2
| 35>       3       7.3256080000     16.3394170000  2
| 36>       4       6.9425190000     32.4889590000  2
| 37>       5      12.2823480000     12.5763330000  2
| 38>       6      12.2721500000     16.5959440000  2
| 39>     d 6
| 40>       1      15.5149760000     36.3874410000  2
| 41>       2      15.1881600000     54.5078410000  2
| 42>       3       5.4560240000      8.6968230000  2
| 43>       4       5.3631050000     12.8402080000  2
| 44>       5      12.2823480000     12.5763330000  2
| 45>       6      12.2721500000     16.5959440000  2
| 46>     f 2
| 47>       1      12.2823480000    -12.5763330000  2
| 48>       2      12.2721500000    -16.5959440000  2
| 49>   end
| 50>   NewGTO 50
| 51>     s 9
| 52>      1   11606.9000000000      0.0000828924
| 53>      2    1754.8000000000      0.0005888217
| 54>      3     397.1780000000      0.0023066947
| 55>      4      90.2990000000      0.0070630020
| 56>      5      31.4890000000     -0.1144057683
| 57>      6      19.6685000000      0.4663467808
| 58>      7       7.0675900000     -1.5920566652
| 59>      8       4.4149000000     -0.4857264463
| 60>      9       2.1635600000      1.8608709182
| 61>     s 1
| 62>      1       1.1440977736      1.0000000000
| 63>     s 3
| 64>      1      20.1979612740      0.0499208536
| 65>      2      10.8801084260     -0.3194632558
| 66>      3       2.7745387028      1.1876917909
| 67>     s 1
| 68>      1       0.5855005628      1.0000000000
| 69>     s 1
| 70>      1       0.2531708984      1.0000000000
| 71>     s 1
| 72>      1       0.1159946163      1.0000000000
| 73>     s 1
| 74>      1       0.0522335841      1.0000000000
| 75>     p 7
| 76>      1     195.4950000000      0.0002650612
| 77>      2      18.2563000000      0.0455545616
| 78>      3      11.4094000000     -0.1121290896
| 79>      4       6.9056700000     -0.1423994850
| 80>      5       2.9820600000      0.3531508462
| 81>      6       1.6084300000      0.5324554746
| 82>      7       0.8317670000      0.2863338591
| 83>     p 3
| 84>      1      13.3040657450     -0.0211092895
| 85>      2       3.4193503621      0.3432869091
| 86>      3       1.2382899573      0.7282784653
| 87>     p 1
| 88>      1       0.3926530032      1.0000000000
| 89>     p 1
| 90>      1       0.1931305975      1.0000000000
| 91>     p 1
| 92>      1       0.0864435187      1.0000000000
| 93>     p 1
| 94>      1       0.0373506847      1.0000000000
| 95>     s 1
| 96>      1       0.0240288399      1.0000000000
| 97>   end
| 98>   NewAuxGTO 50
| 99>     S 1
|100>      1 1310.72 1.0
|101>     S 1
|102>      1  655.36 1.0
|103>     S 1
|104>      1  327.68 1.0
|105>     S 1
|106>      1  163.84 1.0
|107>     S 1
|108>      1   81.82 1.0
|109>     S 1
|110>      1   40.96 1.0
|111>     S 1
|112>      1   20.48 1.0
|113>     S 1
|114>      1   10.24 1.0
|115>     S 1
|116>      1    5.12 1.0
|117>     S 1
|118>      1    2.56 1.0
|119>     S 1
|120>      1    1.28 1.0
|121>     S 1
|122>      1    0.64 1.0
|123>     S 1
|124>      1    0.32 1.0
|125>     S 1
|126>      1    0.16 1.0
|127>     S 1
|128>      1    0.08 1.0
|129>     S 1
|130>      1    0.04 1.0
|131>     S 1
|132>      1    0.02 1.0
|133>     S 1
|134>      1    0.01 1.0
|135>   end
|136> end
|137>
|138> * xyz 0 3
|139> 50  0.0 0.0 0.0
|140> *
|141>
|142>
|143>                          ****END OF INPUT****

CARTESIAN COORDINATES (ANGSTROEM)
---------------------------------
  Sn     0.000000    0.000000    0.000000

 Total Charge           Charge          ....    0
 Multiplicity           Mult            ....    3
 Number of Electrons    NEL             ....   22
 Basis Dimension        Dim             ....   26

ORBITAL ENERGIES
----------------

  NO   OCC          E(Eh)            E(eV)
   0   2.0000      -9.825301      -267.3600
   1   2.0000      -7.693764      -209.3580
   2   2.0000      -7.693764      -209.3580
   3   2.0000      -7.686398      -209.1575
   4   2.0000      -2.464566       -67.0643
   5   2.0000      -1.649285       -44.8793
   6   2.0000      -1.649285       -44.8793
   7   2.0000      -1.632607       -44.4255
   8   2.0000      -0.450100       -12.2479
   9   2.0000      -0.241380        -6.5683
  10   0.6667      -0.272402        -7.4124
  11   0.6667      -0.272402        -7.4124
  12   0.6667      -0.080554        -2.1920
  13   0.0000       0.053515         1.4562
  14   0.0000       0.053515         1.4562
  15   0.0000       0.069960         1.9037
  16   0.0000       0.205470         5.5911
  17   0.0000       0.571819        15.5600

CleanUpVectors: The p-vectors have cracked symmetry
CleanUpVectors: The p-vectors have cracked symmetry
CleanUpVectors: The p-vectors have cracked symmetry
CleanUpVectors: The p-vectors have cracked symmetry
CleanUpVectors: The p-vectors have cracked symmetry
CleanUpVectors: The p-vectors have cracked symmetry
CleanUpVectors: The p-vectors have cracked symmetry
CleanUpVectors: The p-vectors have cracked symmetry
CleanUpVectors: The p-vectors have cracked symmetry
CleanUpVectors: The p-vectors have cracked symmetry
CleanUpVectors: The p-vectors have cracked symmetry
CleanUpVectors: The p-vectors have cracked symmetry
CleanUpVectors: The p-vectors have cracked symmetry
CleanUpVectors: The p-vectors have cracked symmetry
CleanUpVectors: The p-vectors have cracked symmetry
CleanUpVectors: The p-vectors have cracked symmetry
CleanUpVectors: The p-vectors have cracked symmetry
--------------------------
ATOM BASIS FOR ELEMENT Sn
--------------------------
 NewGTO Sn
 S 18
    1      11606.900000000000        -0.000032205543
    2       1754.800000000000        -0.000228770339
    3        397.178000000000        -0.000896202244
    4         90.299000000000        -0.002744133516
    5         31.489000000000         0.044449187933
    6         19.668500000000        -0.181186106346
    7          7.067590000000         0.618549457455
    8          4.414900000000         0.188715537831
    9          2.163560000000        -0.722989779200
   10          1.144097773600        -0.739248381887
   11         20.197961274000        -0.005448690438
   12         10.880108426000         0.034868321787
   13          2.774538702800        -0.129632497001
   14          0.585500562800         0.174010080875
   15          0.253170898400        -0.113531975763
   16          0.115994616300         0.068179919798
   17          0.052233584100        -0.032041748182
   18          0.024028839900         0.009000971053
 P 32
    1        195.495000000000        -0.000057809650
    2         18.256300000000        -0.009935415906
    3         11.409400000000         0.024455270806
    4          6.905670000000         0.031057221465
    5          2.982060000000        -0.077021936146
    6          1.608430000000        -0.116128141859
    7          0.831767000000        -0.062449201097
    8        195.495000000000        -0.000260932849
    9         18.256300000000        -0.044845045431
   10         11.409400000000         0.110382669499
   11          6.905670000000         0.140181600918
   12          2.982060000000        -0.347650491754
   13          1.608430000000        -0.524162435326
   14          0.831767000000        -0.281874184907
   15        195.495000000000         0.000058229703
   16         18.256300000000         0.010007608093
   17         11.409400000000        -0.024632966383
   18          6.905670000000        -0.031282887782
   19          2.982060000000         0.077581588807
   20          1.608430000000         0.116971945935
   21          0.831767000000         0.062902966133
   22         13.304065745000         0.000332230911
   23          3.419350362100        -0.005402859363
   24          1.238289957300        -0.011462091973
   25         13.304065745000         0.001499575903
   26          3.419350362100        -0.024386646305
   27          1.238289957300        -0.051735935376
   28         13.304065745000        -0.000334644949
   29          3.419350362100         0.005442117330
   30          1.238289957300         0.011545377211
   31          0.392653003200         0.058249925706
   32          0.392653003200         0.262920102112
 S 18
    1      11606.900000000000        -0.000020874080
    2       1754.800000000000        -0.000148277905
    3        397.178000000000        -0.000580875090
    4         90.299000000000        -0.001778615055
    5         31.489000000000         0.028809820791
    6         19.668500000000        -0.117436099427
    7          7.067590000000         0.400913938996
    8          4.414900000000         0.122316313934
    9          2.163560000000        -0.468607120642
   10          1.144097773600        -1.360666572666
   11         20.197961274000        -0.012944638578
   12         10.880108426000         0.082837854063
   13          2.774538702800        -0.307972317503
   14          0.585500562800         1.656811301662
   15          0.253170898400         0.381195966094
   16          0.115994616300         0.056581042491
   17          0.052233584100        -0.030203395189
   18          0.024028839900         0.009114553949
 P 32
    1        195.495000000000        -0.000130831476
    2         18.256300000000        -0.022485261957
    3         11.409400000000         0.055345762621
    4          6.905670000000         0.070286917715
    5          2.982060000000        -0.174311616842
    6          1.608430000000        -0.262814532861
    7          0.831767000000        -0.141331440865
    8        195.495000000000        -0.000026471432
    9         18.256300000000        -0.004549494572
   10         11.409400000000         0.011198234964
   11          6.905670000000         0.014221313109
   12          2.982060000000        -0.035268868834
   13          1.608430000000        -0.053175866617
   14          0.831767000000        -0.028595914261
   15        195.495000000000        -0.000032839421
   16         18.256300000000        -0.005643924661
   17         11.409400000000         0.013892091412
   18          6.905670000000         0.017642403677
   19          2.982060000000        -0.043753176407
   20          1.608430000000        -0.065967896041
   21          0.831767000000        -0.035474970493
   22         13.304065745000         0.005141446725
   23          3.419350362100        -0.083612068253
   24          1.238289957300        -0.177381855043
   25         13.304065745000         0.001040280696
   26          3.419350362100        -0.016917421349
   27          1.238289957300        -0.035890077164
   28         13.304065745000         0.001290531461
   29          3.419350362100        -0.020987089893
   30          1.238289957300        -0.044523823115
   31          0.392653003200         1.491887317631
   32          0.392653003200         0.301856979319
 S 18
    1      11606.900000000000        -0.000004409871
    2       1754.800000000000        -0.000031325278
    3        397.178000000000        -0.000122716015
    4         90.299000000000        -0.000375751268
    5         31.489000000000         0.006086379773
    6         19.668500000000        -0.024809619793
    7          7.067590000000         0.084697315773
    8          4.414900000000         0.025840616795
    9          2.163560000000        -0.098998217348
   10          1.144097773600        -0.460163221909
   11         20.197961274000        -0.003135225658
   12         10.880108426000         0.020063547079
   13          2.774538702800        -0.074591708840
   14          0.585500562800         0.848091103547
   15          0.253170898400        -0.060761487352
   16          0.115994616300         0.131228358034
   17          0.052233584100        -2.350996147485
   18          0.024028839900         2.441020653678
 S 18
    1      11606.900000000000         0.000006442070
    2       1754.800000000000         0.000045760895
    3        397.178000000000         0.000179267194
    4         90.299000000000         0.000548908596
    5         31.489000000000        -0.008891164076
    6         19.668500000000         0.036242628374
    7          7.067590000000        -0.123728350752
    8          4.414900000000        -0.037748739370
    9          2.163560000000         0.144619531894
   10          1.144097773600         0.376734373343
   11         20.197961274000         0.007950065286
   12         10.880108426000        -0.050875607222
   13          2.774538702800         0.189143946785
   14          0.585500562800        -0.228892108989
   15          0.253170898400        -3.346576967516
   16          0.115994616300         7.781212078028
   17          0.052233584100        -7.501309847907
   18          0.024028839900         2.909429781698
 S 18
    1      11606.900000000000        -0.000020821541
    2       1754.800000000000        -0.000147904698
    3        397.178000000000        -0.000579413059
    4         90.299000000000        -0.001774138379
    5         31.489000000000         0.028737308059
    6         19.668500000000        -0.117140519236
    7          7.067590000000         0.399904860703
    8          4.414900000000         0.122008450512
    9          2.163560000000        -0.467427662342
   10          1.144097773600        -3.721092593774
   11         20.197961274000        -0.006236132462
   12         10.880108426000         0.039907474258
   13          2.774538702800        -0.148366920798
   14          0.585500562800         9.667683023158
   15          0.253170898400       -12.065564809316
   16          0.115994616300         9.911639109482
   17          0.052233584100        -5.083884452771
   18          0.024028839900         1.406101299738
 S 18
    1      11606.900000000000         0.000011679919
    2       1754.800000000000         0.000082967677
    3        397.178000000000         0.000325023858
    4         90.299000000000         0.000995209363
    5         31.489000000000        -0.016120297255
    6         19.668500000000         0.065710399417
    7          7.067590000000        -0.224328083032
    8          4.414900000000        -0.068441083134
    9          2.163560000000         0.262205243679
   10          1.144097773600        10.755140600286
   11         20.197961274000        -0.228789390892
   12         10.880108426000         1.464113660647
   13          2.774538702800        -5.443241888149
   14          0.585500562800       -11.187568014934
   15          0.253170898400         7.395552731076
   16          0.115994616300        -4.519752690550
   17          0.052233584100         2.094068999533
   18          0.024028839900        -0.577783336690
 S 18
    1      11606.900000000000        -0.000104747257
    2       1754.800000000000        -0.000744066498
    3        397.178000000000        -0.002914862423
    4         90.299000000000        -0.008925185947
    5         31.489000000000         0.144569229273
    6         19.668500000000        -0.589300659188
    7          7.067590000000         2.011807695246
    8          4.414900000000         0.613789837894
    9          2.163560000000        -2.351495719296
   10          1.144097773600         6.580733764563
   11         20.197961274000        -0.121795261717
   12         10.880108426000         0.779415976356
   13          2.774538702800        -2.897691487230
   14          0.585500562800        -5.300230736153
   15          0.253170898400         3.140274163845
   16          0.115994616300        -1.878531439542
   17          0.052233584100         0.872676079103
   18          0.024028839900        -0.242360556460
 P 32
    1        195.495000000000         0.000039366281
    2         18.256300000000         0.006765658883
    3         11.409400000000        -0.016653154908
    4          6.905670000000        -0.021148844523
    5          2.982060000000         0.052449152744
    6          1.608430000000         0.079079064421
    7          0.831767000000         0.042525647251
    8        195.495000000000        -0.000037055017
    9         18.256300000000        -0.006368435134
   10         11.409400000000         0.015675418854
   11          6.905670000000         0.019907158614
   12          2.982060000000        -0.049369770615
   13          1.608430000000        -0.074436193277
   14          0.831767000000        -0.040028891606
   15        195.495000000000        -0.000126964759
   16         18.256300000000        -0.021820711405
   17         11.409400000000         0.053710021968
   18          6.905670000000         0.068209592130
   19          2.982060000000        -0.169159847592
   20          1.608430000000        -0.255047065303
   21          0.831767000000        -0.137154398713
   22         13.304065745000        -0.001556023200
   23          3.419350362100         0.025304612685
   24          1.238289957300         0.053683388450
   25         13.304065745000         0.001464666338
   26          3.419350362100        -0.023818934308
   27          1.238289957300        -0.050531542169
   28         13.304065745000         0.005018510950
   29          3.419350362100        -0.081612842174
   30          1.238289957300        -0.173140524360
   31          0.392653003200        -0.453085125991
   32          0.392653003200         0.426483700286
 P 32
    1        195.495000000000        -0.000023029177
    2         18.256300000000        -0.003957893772
    3         11.409400000000         0.009742054578
    4          6.905670000000         0.012372021924
    5          2.982060000000        -0.030682625092
    6          1.608430000000        -0.046261057791
    7          0.831767000000        -0.024877398835
    8        195.495000000000        -0.000047163001
    9         18.256300000000        -0.008105636886
   10         11.409400000000         0.019951408876
   11          6.905670000000         0.025337495909
   12          2.982060000000        -0.062837011811
   13          1.608430000000        -0.094741132030
   14          0.831767000000        -0.050948098468
   15        195.495000000000         0.000006624301
   16         18.256300000000         0.001138480919
   17         11.409400000000        -0.002802284217
   18          6.905670000000        -0.003558789523
   19          2.982060000000         0.008825801102
   20          1.608430000000         0.013306908832
   21          0.831767000000         0.007155938365
   22         13.304065745000         0.001123433661
   23          3.419350362100        -0.018269684975
   24          1.238289957300        -0.038758885883
   25         13.304065745000         0.002300755364
   26          3.419350362100        -0.037415716782
   27          1.238289957300        -0.079376929542
   28         13.304065745000        -0.000323153642
   29          3.419350362100         0.005255241535
   30          1.238289957300         0.011148922777
   31          0.392653003200         0.432679015321
   32          0.392653003200         0.886112459906
 P 32
    1        195.495000000000         0.000009133972
    2         18.256300000000         0.001569803788
    3         11.409400000000        -0.003863952663
    4          6.905670000000        -0.004907066233
    5          2.982060000000         0.012169528509
    6          1.608430000000         0.018348340795
    7          0.831767000000         0.009867024528
    8        195.495000000000        -0.000008597700
    9         18.256300000000        -0.001477637843
   10         11.409400000000         0.003637093197
   11          6.905670000000         0.004618963732
   12          2.982060000000        -0.011455034058
   13          1.608430000000        -0.017271077393
   14          0.831767000000        -0.009287714140
   15        195.495000000000        -0.000029459032
   16         18.256300000000        -0.005062956323
   17         11.409400000000         0.012462082024
   18          6.905670000000         0.015826348618
   19          2.982060000000        -0.039249358287
   20          1.608430000000        -0.059177362647
   21          0.831767000000        -0.031823285564
   22         13.304065745000        -0.000456178289
   23          3.419350362100         0.007418536503
   24          1.238289957300         0.015738323355
   25         13.304065745000         0.000429395258
   26          3.419350362100        -0.006982981159
   27          1.238289957300        -0.014814298673
   28         13.304065745000         0.001471273524
   29          3.419350362100        -0.023926382762
   30          1.238289957300        -0.050759492589
   31          0.392653003200        -0.138960837075
   32          0.392653003200         0.130802201597
 P 32
    1        195.495000000000         0.000026844127
    2         18.256300000000         0.004613547497
    3         11.409400000000        -0.011355896369
    4          6.905670000000        -0.014421536824
    5          2.982060000000         0.035765423821
    6          1.608430000000         0.053924536554
    7          0.831767000000         0.028998519854
    8        195.495000000000        -0.000025268061
    9         18.256300000000        -0.004342677998
   10         11.409400000000         0.010689171693
   11          6.905670000000         0.013574822998
   12          2.982060000000        -0.033665572798
   13          1.608430000000        -0.050758532040
   14          0.831767000000        -0.027295965681
   15        195.495000000000        -0.000086578108
   16         18.256300000000        -0.014879687290
   17         11.409400000000         0.036625218876
   18          6.905670000000         0.046512571577
   19          2.982060000000        -0.115351217819
   20          1.608430000000        -0.173918279087
   21          0.831767000000        -0.093526490748
   22         13.304065745000        -0.001504238798
   23          3.419350362100         0.024462475981
   24          1.238289957300         0.051896806994
   25         13.304065745000         0.001415922289
   26          3.419350362100        -0.023026240933
   27          1.238289957300        -0.048849854054
   28         13.304065745000         0.004851495066
   29          3.419350362100        -0.078896769389
   30          1.238289957300        -0.167378413230
   31          0.392653003200        -0.909489444990
   32          0.392653003200         0.856091717875
 P 32
    1        195.495000000000         0.000465301511
    2         18.256300000000         0.079968725493
    3         11.409400000000        -0.196836937314
    4          6.905670000000        -0.249975083206
    5          2.982060000000         0.619938422972
    6          1.608430000000         0.934698616125
    7          0.831767000000         0.502644586482
    8        195.495000000000        -0.000437982839
    9         18.256300000000        -0.075273620705
   10         11.409400000000         0.185280293874
   11          6.905670000000         0.235298605585
   12          2.982060000000        -0.583540745755
   13          1.608430000000        -0.879820813322
   14          0.831767000000        -0.473133437090
   15        195.495000000000        -0.001500697886
   16         18.256300000000        -0.257916414342
   17         11.409400000000         0.634841643017
   18          6.905670000000         0.806223642273
   19          2.982060000000        -1.999435331492
   20          1.608430000000        -3.014604948047
   21          0.831767000000        -1.621137371317
   22         13.304065745000         0.035540408620
   23          3.419350362100        -0.577970993449
   24          1.238289957300        -1.226157528700
   25         13.304065745000        -0.033453768604
   26          3.419350362100         0.544037297970
   27          1.238289957300         1.154167659554
   28         13.304065745000        -0.114625495142
   29          3.419350362100         1.864081305590
   30          1.238289957300         3.954622901259
   31          0.392653003200        -0.230164664879
   32          0.392653003200         0.216651291827
 end
  // -----------------------------------------------
  // The basis set
  // -----------------------------------------------
  BAS[ATNO] = new BFNGauss[NSH];
  // Basis function   1 L = s
  InitBFNGauss(BAS[ATNO][  0]);
  BAS[ATNO][  0].l  = 0;
  BAS[ATNO][  0].ng = 18;
  BAS[ATNO][  0].a[  0] =     11606.900000000000;     BAS[ATNO][  0].d[  0] =         0.000032205543;
  BAS[ATNO][  0].a[  1] =      1754.800000000000;     BAS[ATNO][  0].d[  1] =         0.000228770339;
  BAS[ATNO][  0].a[  2] =       397.178000000000;     BAS[ATNO][  0].d[  2] =         0.000896202244;
  BAS[ATNO][  0].a[  3] =        90.299000000000;     BAS[ATNO][  0].d[  3] =         0.002744133516;
  BAS[ATNO][  0].a[  4] =        31.489000000000;     BAS[ATNO][  0].d[  4] =        -0.044449187933;
  BAS[ATNO][  0].a[  5] =        19.668500000000;     BAS[ATNO][  0].d[  5] =         0.181186106346;
  BAS[ATNO][  0].a[  6] =         7.067590000000;     BAS[ATNO][  0].d[  6] =        -0.618549457455;
  BAS[ATNO][  0].a[  7] =         4.414900000000;     BAS[ATNO][  0].d[  7] =        -0.188715537831;
  BAS[ATNO][  0].a[  8] =         2.163560000000;     BAS[ATNO][  0].d[  8] =         0.722989779200;
  BAS[ATNO][  0].a[  9] =         1.144097773600;     BAS[ATNO][  0].d[  9] =         0.739248381887;
  BAS[ATNO][  0].a[ 10] =        20.197961274000;     BAS[ATNO][  0].d[ 10] =         0.005448690438;
  BAS[ATNO][  0].a[ 11] =        10.880108426000;     BAS[ATNO][  0].d[ 11] =        -0.034868321787;
  BAS[ATNO][  0].a[ 12] =         2.774538702800;     BAS[ATNO][  0].d[ 12] =         0.129632497001;
  BAS[ATNO][  0].a[ 13] =         0.585500562800;     BAS[ATNO][  0].d[ 13] =        -0.174010080875;
  BAS[ATNO][  0].a[ 14] =         0.253170898400;     BAS[ATNO][  0].d[ 14] =         0.113531975763;
  BAS[ATNO][  0].a[ 15] =         0.115994616300;     BAS[ATNO][  0].d[ 15] =        -0.068179919798;
  BAS[ATNO][  0].a[ 16] =         0.052233584100;     BAS[ATNO][  0].d[ 16] =         0.032041748182;
  BAS[ATNO][  0].a[ 17] =         0.024028839900;     BAS[ATNO][  0].d[ 17] =        -0.009000971053;

FINAL SINGLE POINT ENERGY      -190.441038040471

DIPOLE MOMENT
-------------
                                X             Y             Z
Electronic contribution:     -0.00000       0.00000       0.00000
Nuclear contribution   :      0.00000       0.00000       0.00000
                        -----------------------------------------
Total Dipole Moment    :     -0.00000       0.00000       0.00000
                        -----------------------------------------
Magnitude (a.u.)       :      0.00000
Magnitude (Debye)      :      0.00000

Rotational constants in cm-1:     0.000000     0.000000     0.000000
Rotational constants in MHz :     0.000000     0.000000     0.000000

                             ****ORCA TERMINATED NORMALLY****
TOTAL RUN TIME: 0 days 0 hours 0 minutes 1 seconds 167 msec
