                         Program Version 4.2.0 -  RELEASE  -
|  1> #
|  2> # 50_Sn CCSD(T)/Def2-QZVPPD
|  3> #
|  4> ! CCSD(T) Def2-QZVPPD tightscf
|  5>
|  6> *xyz 0 3
|  7>  Sn 0.0 0.0 0.0
|  8> *
|  9>
| 10> %maxcore 5000
| 11>
| 12> %pal
| 13> nprocs 24
| 14> end
| 15>
| 16>
| 17>                          ****END OF INPUT****

CARTESIAN COORDINATES (ANGSTROEM)
---------------------------------
  Sn     0.000000    0.000000    0.000000

 Total Charge           Charge          ....    0
 Multiplicity           Mult            ....    3
 Number of Electrons    NEL             ....   22
 Basis Dimension        Dim             ....   88

ORBITAL ENERGIES
----------------
                 SPIN UP ORBITALS
  NO   OCC          E(Eh)            E(eV)
   0   1.0000      -5.859646      -159.4491
   1   1.0000      -4.047430      -110.1362
   2   1.0000      -4.044625      -110.0598
   3   1.0000      -4.044625      -110.0598
   4   1.0000      -1.314787       -35.7772
   5   1.0000      -1.312043       -35.7025
   6   1.0000      -1.312043       -35.7025
   7   1.0000      -1.304254       -35.4906
   8   1.0000      -1.304254       -35.4906
   9   1.0000      -0.573873       -15.6159
  10   1.0000      -0.267035        -7.2664
  11   1.0000      -0.267035        -7.2664
  12   0.0000      -0.016781        -0.4566
  13   0.0000       0.040090         1.0909
  14   0.0000       0.096374         2.6225
  15   0.0000       0.096374         2.6225
  16   0.0000       0.096450         2.6246

                 SPIN DOWN ORBITALS
  NO   OCC          E(Eh)            E(eV)
   0   1.0000      -5.854151      -159.2995
   1   1.0000      -4.049810      -110.2009
   2   1.0000      -4.034919      -109.7957
   3   1.0000      -4.034919      -109.7957
   4   1.0000      -1.312471       -35.7142
   5   1.0000      -1.307959       -35.5914
   6   1.0000      -1.307959       -35.5914
   7   1.0000      -1.294977       -35.2381
   8   1.0000      -1.294977       -35.2381
   9   1.0000      -0.441748       -12.0206
  10   0.0000       0.003352         0.0912
  11   0.0000       0.036031         0.9804
  12   0.0000       0.036031         0.9804
  13   0.0000       0.046000         1.2517
  14   0.0000       0.101671         2.7666

E(0)                                       ...   -213.340664417
E(0)                                       ...   -213.340664417
E(CORR)                                    ...     -0.442490204
E(TOT)                                     ...   -213.783154621
E(CCSD(T))                                 ...   -213.793008703

MULLIKEN ATOMIC CHARGES AND SPIN DENSITIES
------------------------------------------
   0 Sn:    0.000000    2.000000
Sum of atomic charges       :    0.0000000

LOEWDIN ATOMIC CHARGES AND SPIN DENSITIES
-----------------------------------------
   0 Sn:    0.000000    2.000000

FINAL SINGLE POINT ENERGY      -213.793008703151

DIPOLE MOMENT
-------------
                                X             Y             Z
Electronic contribution:      0.00000      -0.00000      -0.00000
Nuclear contribution   :      0.00000       0.00000       0.00000
                        -----------------------------------------
Total Dipole Moment    :      0.00000      -0.00000      -0.00000
                        -----------------------------------------
Magnitude (a.u.)       :      0.00000
Magnitude (Debye)      :      0.00000

Rotational constants in cm-1:     0.000000     0.000000     0.000000
Rotational constants in MHz :     0.000000     0.000000     0.000000

                             ****ORCA TERMINATED NORMALLY****
TOTAL RUN TIME: 0 days 0 hours 0 minutes 24 seconds 587 msec
