                         Program Version 4.2.0 -  RELEASE  -
|  1> # input to generate an atomic fitting density for Sb
|  2> # this file is use internally by ORCA
|  3> #
|  4> # atomic ground state (S=4): 1s2 2s2 2p6 3s2 3p6 4s2 3d10 4p6 5s2 4d10 5p3
|  5> #
|  6> ! RHF AllowRHF def2-SVP def2/J  NoMulliken NoLoewdin NoMayer NoPrintMOs
|  7>
|  8> %output print[p_atomdensfit] 2 end
|  9>
| 10> %scf
| 11>   guess hcore
| 12>   maxiter 1000
| 13>   maxdisk 500000
| 14>   SCFMode Conventional
| 15>   lshift 1.000000
| 16>   hftyp rohf
| 17>   rohf_case sahf
| 18>   rohf_numop   2
| 19>   rohf_norb[1] 3
| 20>   rohf_nel[1]  3
| 21> end
| 22>
| 23> %basis
| 24>   NewECP 51
| 25>     N_core 28
| 26>     lmax f
| 27>     s 4
| 28>       1      16.3308650000    281.0715810000  2
| 29>       2       8.5565420000     61.7166040000  2
| 30>       3      14.4449780000     15.3668010000  2
| 31>       4      14.4492950000     20.2961380000  2
| 32>     p 6
| 33>       1      14.4703370000     67.4573800000  2
| 34>       2      13.8161940000    134.9335030000  2
| 35>       3       8.4249240000     14.7163440000  2
| 36>       4       8.0927280000     29.5185120000  2
| 37>       5      14.4449780000     15.3668010000  2
| 38>       6      14.4492950000     20.2961380000  2
| 39>     d 6
| 40>       1      14.8863310000     35.4478150000  2
| 41>       2      15.1463190000     53.1434660000  2
| 42>       3       5.9082670000      9.1792230000  2
| 43>       4       5.5943220000     13.2402530000  2
| 44>       5      14.4449780000     15.3668010000  2
| 45>       6      14.4492950000     20.2961380000  2
| 46>     f 2
| 47>       1      14.4449780000    -15.3668010000  2
| 48>       2      14.4492950000    -20.2961380000  2
| 49>   end
| 50>   NewGTO 51
| 51>     s 9
| 52>      1   12339.3165550000      0.0001062594
| 53>      2    1854.7043271000      0.0007636787
| 54>      3     418.4444177200      0.0030770599
| 55>      4      96.9651111090      0.0079471651
| 56>      5      28.5379602670     -0.1669386813
| 57>      6      17.8629071440      0.7715813479
| 58>      7       8.4541754812     -1.5092770049
| 59>      8       5.2813981306     -0.8362947252
| 60>      9       2.3194618632      1.8771593451
| 61>     s 1
| 62>      1       1.2167512076      1.0000000000
| 63>     s 3
| 64>      1      25.3362666010      0.0501016644
| 65>      2      12.4770433090     -0.3294267888
| 66>      3       3.0723142741      1.1909064315
| 67>     s 1
| 68>      1       0.6017477470      1.0000000000
| 69>     s 1
| 70>      1       0.2832393635      1.0000000000
| 71>     s 1
| 72>      1       0.1322176573      1.0000000000
| 73>     s 1
| 74>      1       0.0609867190      1.0000000000
| 75>     p 7
| 76>      1     162.8930000000      0.0004035625
| 77>      2      30.3996000000     -0.0051634476
| 78>      3      19.0004000000      0.0588996771
| 79>      4       9.3225600000     -0.2747281280
| 80>      5       3.0166800000      0.3716832104
| 81>      6       1.8621900000      0.4356677749
| 82>      7       1.1033100000      0.3507463881
| 83>     p 3
| 84>      1      12.6653261130     -0.0222287165
| 85>      2       3.3473442879      0.2887067805
| 86>      3       1.1722158971      0.7797103956
| 87>     p 1
| 88>      1       0.5888674548      1.0000000000
| 89>     p 1
| 90>      1       0.2501424961      1.0000000000
| 91>     p 1
| 92>      1       0.1112016109      1.0000000000
| 93>     p 1
| 94>      1       0.0482066854      1.0000000000
| 95>     s 1
| 96>      1       0.0295385571      1.0000000000
| 97>   end
| 98>   NewAuxGTO 51
| 99>     S 1
|100>      1 1310.72 1.0
|101>     S 1
|102>      1  655.36 1.0
|103>     S 1
|104>      1  327.68 1.0
|105>     S 1
|106>      1  163.84 1.0
|107>     S 1
|108>      1   81.82 1.0
|109>     S 1
|110>      1   40.96 1.0
|111>     S 1
|112>      1   20.48 1.0
|113>     S 1
|114>      1   10.24 1.0
|115>     S 1
|116>      1    5.12 1.0
|117>     S 1
|118>      1    2.56 1.0
|119>     S 1
|120>      1    1.28 1.0
|121>     S 1
|122>      1    0.64 1.0
|123>     S 1
|124>      1    0.32 1.0
|125>     S 1
|126>      1    0.16 1.0
|127>     S 1
|128>      1    0.08 1.0
|129>     S 1
|130>      1    0.04 1.0
|131>     S 1
|132>      1    0.02 1.0
|133>     S 1
|134>      1    0.01 1.0
|135>   end
|136> end
|137>
|138> * xyz 0 4
|139> 51  0.0 0.0 0.0
|140> *
|141>
|142>
|143>                          ****END OF INPUT****

CARTESIAN COORDINATES (ANGSTROEM)
---------------------------------
  Sb     0.000000    0.000000    0.000000

 Total Charge           Charge          ....    0
 Multiplicity           Mult            ....    4
 Number of Electrons    NEL             ....   23
 Basis Dimension        Dim             ....   26

ORBITAL ENERGIES
----------------

  NO   OCC          E(Eh)            E(eV)
   0   2.0000     -10.708403      -291.3905
   1   2.0000      -8.461412      -230.2467
   2   2.0000      -8.461412      -230.2467
   3   2.0000      -8.454374      -230.0552
   4   2.0000      -2.730774       -74.3081
   5   2.0000      -1.906049       -51.8662
   6   2.0000      -1.906049       -51.8662
   7   2.0000      -1.892949       -51.5098
   8   2.0000      -0.529370       -14.4049
   9   2.0000      -0.301307        -8.1990
  10   1.0000      -0.350515        -9.5380
  11   1.0000      -0.350515        -9.5380
  12   1.0000      -0.077633        -2.1125
  13   0.0000       0.140334         3.8187
  14   0.0000       0.140334         3.8187
  15   0.0000       0.159146         4.3306
  16   0.0000       0.322250         8.7689
  17   0.0000       0.954183        25.9646

CleanUpVectors: The p-vectors have cracked symmetry
CleanUpVectors: The p-vectors have cracked symmetry
CleanUpVectors: The p-vectors have cracked symmetry
CleanUpVectors: The p-vectors have cracked symmetry
CleanUpVectors: The p-vectors have cracked symmetry
CleanUpVectors: The p-vectors have cracked symmetry
CleanUpVectors: The p-vectors have cracked symmetry
CleanUpVectors: The p-vectors have cracked symmetry
CleanUpVectors: The p-vectors have cracked symmetry
CleanUpVectors: The p-vectors have cracked symmetry
CleanUpVectors: The p-vectors have cracked symmetry
CleanUpVectors: The p-vectors have cracked symmetry
CleanUpVectors: The p-vectors have cracked symmetry
CleanUpVectors: The p-vectors have cracked symmetry
CleanUpVectors: The p-vectors have cracked symmetry
CleanUpVectors: The p-vectors have cracked symmetry
CleanUpVectors: The p-vectors have cracked symmetry
--------------------------
ATOM BASIS FOR ELEMENT Sb
--------------------------
 NewGTO Sb
 S 18
    1      12339.316554999999        -0.000042660986
    2       1854.704327100000        -0.000306601450
    3        418.444417720000        -0.001235376901
    4         96.965111109000        -0.003190624985
    5         28.537960267000         0.067022481701
    6         17.862907144000        -0.309774201927
    7          8.454175481200         0.605943988863
    8          5.281398130600         0.335755305360
    9          2.319461863200        -0.753641258436
   10          1.216751207600        -0.764511401983
   11         25.336266601000        -0.004828147993
   12         12.477043309000         0.031745877274
   13          3.072314274100        -0.114764101478
   14          0.601747747000         0.228248824421
   15          0.283239363500        -0.164750900976
   16          0.132217657300         0.096795774483
   17          0.060986719000        -0.046020445458
   18          0.029538557100         0.013169867966
 P 32
    1        162.893000000000         0.000217939095
    2         30.399600000000        -0.002788458038
    3         19.000400000000         0.031808065224
    4          9.322560000000        -0.148363635328
    5          3.016680000000         0.200723066425
    6          1.862190000000         0.235277164191
    7          1.103310000000         0.189416386285
    8        162.893000000000        -0.000293086721
    9         30.399600000000         0.003749946847
   10         19.000400000000        -0.042775810959
   11          9.322560000000         0.199520931983
   12          3.016680000000        -0.269934429654
   13          1.862190000000        -0.316403133221
   14          1.103310000000        -0.254729090731
   15        162.893000000000         0.000187967273
   16         30.399600000000        -0.002404978572
   17         19.000400000000         0.027433697855
   18          9.322560000000        -0.127960098032
   19          3.016680000000         0.173118858946
   20          1.862190000000         0.202920944395
   21          1.103310000000         0.163367116911
   22         12.665326113000        -0.001178512998
   23          3.347344287900         0.015306537982
   24          1.172215897100         0.041338366783
   25         12.665326113000         0.001584876315
   26          3.347344287900        -0.020584388599
   27          1.172215897100        -0.055592257827
   28         12.665326113000        -0.001016439361
   29          3.347344287900         0.013201524055
   30          1.172215897100         0.035653355719
   31          0.588867454800        -0.116995989641
   32          0.588867454800         0.157337401715
 S 18
    1      12339.316554999999        -0.000028076273
    2       1854.704327100000        -0.000201782164
    3        418.444417720000        -0.000813032765
    4         96.965111109000        -0.002099830951
    5         28.537960267000         0.044109189318
    6         17.862907144000        -0.203870232374
    7          8.454175481200         0.398787055367
    8          5.281398130600         0.220969053261
    9          2.319461863200        -0.495990361780
   10          1.216751207600        -1.436364405477
   11         25.336266601000        -0.011614426555
   12         12.477043309000         0.076366789199
   13          3.072314274100        -0.276072570603
   14          0.601747747000         1.869375686473
   15          0.283239363500         0.115921853053
   16          0.132217657300         0.210424194123
   17          0.060986719000        -0.101935322243
   18          0.029538557100         0.029456066218
 P 32
    1        162.893000000000         0.000151393836
    2         30.399600000000        -0.001937033637
    3         19.000400000000         0.022095829106
    4          9.322560000000        -0.103062462577
    5          3.016680000000         0.139434528387
    6          1.862190000000         0.163437919784
    7          1.103310000000         0.131580216269
    8        162.893000000000        -0.000168156043
    9         30.399600000000         0.002151500495
   10         19.000400000000        -0.024542262122
   11          9.322560000000         0.114473458288
   12          3.016680000000        -0.154872610941
   13          1.862190000000        -0.181533639168
   14          1.103310000000        -0.146148675493
   15        162.893000000000        -0.000036824507
   16         30.399600000000         0.000471157289
   17         19.000400000000        -0.005374512217
   18          9.322560000000         0.025068553054
   19          3.016680000000        -0.033915567172
   20          1.862190000000        -0.039754068171
   21          1.103310000000        -0.032005111754
   22         12.665326113000        -0.006515733686
   23          3.347344287900         0.084626410843
   24          1.172215897100         0.228550545861
   25         12.665326113000         0.007237150653
   26          3.347344287900        -0.093996181244
   27          1.172215897100        -0.253855484570
   28         12.665326113000         0.001584864280
   29          3.347344287900        -0.020584232290
   30          1.172215897100        -0.055591835681
   31          0.588867454800        -0.904379721467
   32          0.588867454800         1.004511940952
 S 18
    1      12339.316554999999        -0.000005817685
    2       1854.704327100000        -0.000041811286
    3        418.444417720000        -0.000168468536
    4         96.965111109000        -0.000435106015
    5         28.537960267000         0.009139866028
    6         17.862907144000        -0.042243955055
    7          8.454175481200         0.082632673968
    8          5.281398130600         0.045787002084
    9          2.319461863200        -0.102774173094
   10          1.216751207600        -0.483680587072
   11         25.336266601000        -0.002662345177
   12         12.477043309000         0.017505363003
   13          3.072314274100        -0.063283406494
   14          0.601747747000         0.982752800306
   15          0.283239363500        -0.311460992460
   16          0.132217657300         0.502414989363
   17          0.060986719000        -2.893438006596
   18          0.029538557100         2.747035108804
 S 18
    1      12339.316554999999         0.000008908902
    2       1854.704327100000         0.000064027639
    3        418.444417720000         0.000257983995
    4         96.965111109000         0.000666298826
    5         28.537960267000        -0.013996317668
    6         17.862907144000         0.064690205815
    7          8.454175481200        -0.126539399047
    8          5.281398130600        -0.070115844612
    9          2.319461863200         0.157383048090
   10          1.216751207600         0.433955782626
   11         25.336266601000         0.007071803136
   12         12.477043309000        -0.046498283558
   13          3.072314274100         0.168095330512
   14          0.601747747000        -0.184763894679
   15          0.283239363500        -3.817876473178
   16          0.132217657300         8.699478913106
   17          0.060986719000        -8.411038247057
   18          0.029538557100         3.278430531999
 S 18
    1      12339.316554999999        -0.000027241290
    2       1854.704327100000        -0.000195781202
    3        418.444417720000        -0.000788853330
    4         96.965111109000        -0.002037382391
    5         28.537960267000         0.042797390683
    6         17.862907144000        -0.197807171669
    7          8.454175481200         0.386927206596
    8          5.281398130600         0.214397476979
    9          2.319461863200        -0.481239705751
   10          1.216751207600        -3.718624968813
   11         25.336266601000        -0.006465102917
   12         12.477043309000         0.042509128563
   13          3.072314274100        -0.153674188999
   14          0.601747747000        11.030306039088
   15          0.283239363500       -14.441088838706
   16          0.132217657300        11.579469563503
   17          0.060986719000        -6.035438902036
   18          0.029538557100         1.708904854237
 S 18
    1      12339.316554999999        -0.000011011461
    2       1854.704327100000        -0.000079138582
    3        418.444417720000        -0.000318869909
    4         96.965111109000        -0.000823549719
    5         28.537960267000         0.017299540446
    6         17.862907144000        -0.079957518720
    7          8.454175481200         0.156403527252
    8          5.281398130600         0.086663643863
    9          2.319461863200        -0.194526479787
   10          1.216751207600       -10.120352836298
   11         25.336266601000         0.213955395860
   12         12.477043309000        -1.406792366058
   13          3.072314274100         5.085676494696
   14          0.601747747000        11.774433491883
   15          0.283239363500        -8.777638566193
   16          0.132217657300         5.244725787382
   17          0.060986719000        -2.464968811727
   18          0.029538557100         0.694251031095
 S 18
    1      12339.316554999999        -0.000136527197
    2       1854.704327100000        -0.000981211188
    3        418.444417720000        -0.003953554814
    4         96.965111109000        -0.010210900620
    5         28.537960267000         0.214490860952
    6         17.862907144000        -0.991364891090
    7          8.454175481200         1.939191813877
    8          5.281398130600         1.074511756179
    9          2.319461863200        -2.411864769384
   10          1.216751207600         6.546043459746
   11         25.336266601000        -0.119847396190
   12         12.477043309000         0.788016592777
   13          3.072314274100        -2.848748372544
   14          0.601747747000        -5.851953011457
   15          0.283239363500         3.949991839962
   16          0.132217657300        -2.297580026582
   17          0.060986719000         1.078446955476
   18          0.029538557100        -0.305046507973
 P 32
    1        162.893000000000        -0.000172921195
    2         30.399600000000         0.002212469020
    3         19.000400000000        -0.025237732807
    4          9.322560000000         0.117717370116
    5          3.016680000000        -0.159261340887
    6          1.862190000000        -0.186677880707
    7          1.103310000000        -0.150290189379
    8        162.893000000000        -0.000148785898
    9         30.399600000000         0.001903665950
   10         19.000400000000        -0.021715202411
   11          9.322560000000         0.101287090208
   12          3.016680000000        -0.137032604322
   13          1.862190000000        -0.160622509017
   14          1.103310000000        -0.129313591987
   15        162.893000000000        -0.000031499538
   16         30.399600000000         0.000403026088
   17         19.000400000000        -0.004597336559
   18          9.322560000000         0.021443541437
   19          3.016680000000        -0.029011242429
   20          1.862190000000        -0.034005473163
   21          1.103310000000        -0.027377046398
   22         12.665326113000         0.007474345399
   23          3.347344287900        -0.097076868860
   24          1.172215897100        -0.262175497547
   25         12.665326113000         0.006431121388
   26          3.347344287900        -0.083527465519
   27          1.172215897100        -0.225582624247
   28         12.665326113000         0.001361535983
   29          3.347344287900        -0.017683642252
   30          1.172215897100        -0.047758212232
   31          0.588867454800         1.041156997906
   32          0.588867454800         0.895838589184
 P 32
    1        162.893000000000         0.000024535614
    2         30.399600000000        -0.000313924995
    3         19.000400000000         0.003580956427
    4          9.322560000000        -0.016702798794
    5          3.016680000000         0.022597430862
    6          1.862190000000         0.026487536016
    7          1.103310000000         0.021324523232
    8        162.893000000000        -0.000008810847
    9         30.399600000000         0.000112731847
   10         19.000400000000        -0.001285937207
   11          9.322560000000         0.005998048528
   12          3.016680000000        -0.008114836836
   13          1.862190000000        -0.009511790711
   14          1.103310000000        -0.007657730106
   15        162.893000000000        -0.000093074313
   16         30.399600000000         0.001190854795
   17         19.000400000000        -0.013584133762
   18          9.322560000000         0.063361020344
   19          3.016680000000        -0.085721937638
   20          1.862190000000        -0.100478807721
   21          1.103310000000        -0.080893242326
   22         12.665326113000        -0.001370905393
   23          3.347344287900         0.017805332229
   24          1.172215897100         0.048086860350
   25         12.665326113000         0.000492298158
   26          3.347344287900        -0.006393973135
   27          1.172215897100        -0.017268203102
   28         12.665326113000         0.005200443683
   29          3.347344287900        -0.067543411828
   30          1.172215897100        -0.182414490804
   31          0.588867454800        -0.230008121050
   32          0.588867454800         0.082596928152
 P 32
    1        162.893000000000        -0.000047388806
    2         30.399600000000         0.000606323973
    3         19.000400000000        -0.006916364607
    4          9.322560000000         0.032260277046
    5          3.016680000000        -0.043645342863
    6          1.862190000000        -0.051158806419
    7          1.103310000000        -0.041186811614
    8        162.893000000000        -0.000040774563
    9         30.399600000000         0.000521696933
   10         19.000400000000        -0.005951020187
   11          9.322560000000         0.027757582318
   12          3.016680000000        -0.037553589376
   13          1.862190000000        -0.044018369044
   14          1.103310000000        -0.035438205077
   15        162.893000000000        -0.000008632403
   16         30.399600000000         0.000110448723
   17         19.000400000000        -0.001259893514
   18          9.322560000000         0.005876571885
   19          3.016680000000        -0.007950489527
   20          1.862190000000        -0.009319151322
   21          1.103310000000        -0.007502640440
   22         12.665326113000         0.002526090021
   23          3.347344287900        -0.032808881127
   24          1.172215897100        -0.088606944522
   25         12.665326113000         0.002173513625
   26          3.347344287900        -0.028229615554
   27          1.172215897100        -0.076239722090
   28         12.665326113000         0.000460155676
   29          3.347344287900        -0.005976506282
   30          1.172215897100        -0.016140750380
   31          0.588867454800         0.368126002010
   32          0.588867454800         0.316745196879
 P 32
    1        162.893000000000        -0.000142743767
    2         30.399600000000         0.001826358899
    3         19.000400000000        -0.020833357433
    4          9.322560000000         0.097173865280
    5          3.016680000000        -0.131467769526
    6          1.862190000000        -0.154099698394
    7          1.103310000000        -0.124062222943
    8        162.893000000000        -0.000122820454
    9         30.399600000000         0.001571446749
   10         19.000400000000        -0.017925563165
   11          9.322560000000         0.083610923762
   12          3.016680000000        -0.113118291872
   13          1.862190000000        -0.132591392727
   14          1.103310000000        -0.106746366777
   15        162.893000000000        -0.000026002381
   16         30.399600000000         0.000332691791
   17         19.000400000000        -0.003795030104
   18          9.322560000000         0.017701311239
   19          3.016680000000        -0.023948331164
   20          1.862190000000        -0.028070991261
   21          1.103310000000        -0.022599327658
   22         12.665326113000         0.010592823631
   23          3.347344287900        -0.137579693674
   24          1.172215897100        -0.371561475609
   25         12.665326113000         0.009114341253
   26          3.347344287900        -0.118377150542
   27          1.172215897100        -0.319701167805
   28         12.665326113000         0.001929601827
   29          3.347344287900        -0.025061686811
   30          1.172215897100        -0.067684097006
   31          0.588867454800         2.483657386104
   32          0.588867454800         2.137003480953
 P 32
    1        162.893000000000        -0.001959247936
    2         30.399600000000         0.025067923929
    3         19.000400000000        -0.285950926468
    4          9.322560000000         1.333772383759
    5          3.016680000000        -1.804477776438
    6          1.862190000000        -2.115115226409
    7          1.103310000000        -1.702831994513
    8        162.893000000000        -0.001685787932
    9         30.399600000000         0.021569094384
   10         19.000400000000        -0.246039621775
   11          9.322560000000         1.147612483331
   12          3.016680000000        -1.552619657859
   13          1.862190000000        -1.819900207161
   14          1.103310000000        -1.465160980774
   15        162.893000000000        -0.000356899023
   16         30.399600000000         0.004566403971
   17         19.000400000000        -0.052089173795
   18          9.322560000000         0.242961624078
   19          3.016680000000        -0.328705899533
   20          1.862190000000        -0.385292000927
   21          1.103310000000        -0.310189978407
   22         12.665326113000        -0.125025970425
   23          3.347344287900         1.623838488393
   24          1.172215897100         4.385500569063
   25         12.665326113000        -0.107575599965
   26          3.347344287900         1.397192911537
   27          1.172215897100         3.773398864749
   28         12.665326113000        -0.022774885127
   29          3.347344287900         0.295800423808
   30          1.172215897100         0.798868197923
   31          0.588867454800        -1.141859251911
   32          0.588867454800        -0.982485428291
 end
  // -----------------------------------------------
  // The basis set
  // -----------------------------------------------
  BAS[ATNO] = new BFNGauss[NSH];
  // Basis function   1 L = s
  InitBFNGauss(BAS[ATNO][  0]);
  BAS[ATNO][  0].l  = 0;
  BAS[ATNO][  0].ng = 18;
  BAS[ATNO][  0].a[  0] =     12339.316554999999;     BAS[ATNO][  0].d[  0] =         0.000042660986;
  BAS[ATNO][  0].a[  1] =      1854.704327100000;     BAS[ATNO][  0].d[  1] =         0.000306601450;
  BAS[ATNO][  0].a[  2] =       418.444417720000;     BAS[ATNO][  0].d[  2] =         0.001235376901;
  BAS[ATNO][  0].a[  3] =        96.965111109000;     BAS[ATNO][  0].d[  3] =         0.003190624985;
  BAS[ATNO][  0].a[  4] =        28.537960267000;     BAS[ATNO][  0].d[  4] =        -0.067022481701;
  BAS[ATNO][  0].a[  5] =        17.862907144000;     BAS[ATNO][  0].d[  5] =         0.309774201927;
  BAS[ATNO][  0].a[  6] =         8.454175481200;     BAS[ATNO][  0].d[  6] =        -0.605943988863;
  BAS[ATNO][  0].a[  7] =         5.281398130600;     BAS[ATNO][  0].d[  7] =        -0.335755305360;
  BAS[ATNO][  0].a[  8] =         2.319461863200;     BAS[ATNO][  0].d[  8] =         0.753641258436;
  BAS[ATNO][  0].a[  9] =         1.216751207600;     BAS[ATNO][  0].d[  9] =         0.764511401983;
  BAS[ATNO][  0].a[ 10] =        25.336266601000;     BAS[ATNO][  0].d[ 10] =         0.004828147993;
  BAS[ATNO][  0].a[ 11] =        12.477043309000;     BAS[ATNO][  0].d[ 11] =        -0.031745877274;
  BAS[ATNO][  0].a[ 12] =         3.072314274100;     BAS[ATNO][  0].d[ 12] =         0.114764101478;
  BAS[ATNO][  0].a[ 13] =         0.601747747000;     BAS[ATNO][  0].d[ 13] =        -0.228248824421;
  BAS[ATNO][  0].a[ 14] =         0.283239363500;     BAS[ATNO][  0].d[ 14] =         0.164750900976;
  BAS[ATNO][  0].a[ 15] =         0.132217657300;     BAS[ATNO][  0].d[ 15] =        -0.096795774483;
  BAS[ATNO][  0].a[ 16] =         0.060986719000;     BAS[ATNO][  0].d[ 16] =         0.046020445458;
  BAS[ATNO][  0].a[ 17] =         0.029538557100;     BAS[ATNO][  0].d[ 17] =        -0.013169867966;

FINAL SINGLE POINT ENERGY      -211.848416128021

DIPOLE MOMENT
-------------
                                X             Y             Z
Electronic contribution:      0.00000      -0.00000      -0.00000
Nuclear contribution   :      0.00000       0.00000       0.00000
                        -----------------------------------------
Total Dipole Moment    :      0.00000      -0.00000      -0.00000
                        -----------------------------------------
Magnitude (a.u.)       :      0.00000
Magnitude (Debye)      :      0.00000

Rotational constants in cm-1:     0.000000     0.000000     0.000000
Rotational constants in MHz :     0.000000     0.000000     0.000000

                             ****ORCA TERMINATED NORMALLY****
TOTAL RUN TIME: 0 days 0 hours 0 minutes 1 seconds 113 msec
