                         Program Version 4.2.0 -  RELEASE  -
|  1> #
|  2> # 51_Sb CCSD(T)/Def2-QZVPPD
|  3> #
|  4> ! CCSD(T) Def2-QZVPPD tightscf
|  5>
|  6> *xyz 0 4
|  7>  Sb 0.0 0.0 0.0
|  8> *
|  9>
| 10> %maxcore 5000
| 11>
| 12> %pal
| 13> nprocs 24
| 14> end
| 15>
| 16>
| 17>                          ****END OF INPUT****

CARTESIAN COORDINATES (ANGSTROEM)
---------------------------------
  Sb     0.000000    0.000000    0.000000

 Total Charge           Charge          ....    0
 Multiplicity           Mult            ....    4
 Number of Electrons    NEL             ....   23
 Basis Dimension        Dim             ....   88

ORBITAL ENERGIES
----------------
                 SPIN UP ORBITALS
  NO   OCC          E(Eh)            E(eV)
   0   1.0000      -6.525209      -177.5600
   1   1.0000      -4.592263      -124.9618
   2   1.0000      -4.592263      -124.9618
   3   1.0000      -4.592263      -124.9618
   4   1.0000      -1.619460       -44.0677
   5   1.0000      -1.619460       -44.0677
   6   1.0000      -1.619460       -44.0677
   7   1.0000      -1.619460       -44.0677
   8   1.0000      -1.619460       -44.0677
   9   1.0000      -0.731571       -19.9071
  10   1.0000      -0.334285        -9.0964
  11   1.0000      -0.334285        -9.0964
  12   1.0000      -0.334285        -9.0964
  13   0.0000       0.046670         1.2700
  14   0.0000       0.111390         3.0311
  15   0.0000       0.111390         3.0311
  16   0.0000       0.111390         3.0311
  17   0.0000       0.111390         3.0311

                 SPIN DOWN ORBITALS
  NO   OCC          E(Eh)            E(eV)
   0   1.0000      -6.512470      -177.2133
   1   1.0000      -4.579464      -124.6135
   2   1.0000      -4.579464      -124.6135
   3   1.0000      -4.579464      -124.6135
   4   1.0000      -1.607615       -43.7454
   5   1.0000      -1.607615       -43.7454
   6   1.0000      -1.607615       -43.7454
   7   1.0000      -1.607615       -43.7454
   8   1.0000      -1.607615       -43.7454
   9   1.0000      -0.507566       -13.8116
  10   0.0000       0.024530         0.6675
  11   0.0000       0.024530         0.6675
  12   0.0000       0.024530         0.6675
  13   0.0000       0.055843         1.5196
  14   0.0000       0.126702         3.4477

E(0)                                       ...   -239.277977767
E(0)                                       ...   -239.277977767
E(CORR)                                    ...     -0.482399754
E(TOT)                                     ...   -239.760377521
E(CCSD(T))                                 ...   -239.770728576

MULLIKEN ATOMIC CHARGES AND SPIN DENSITIES
------------------------------------------
   0 Sb:   -0.000000    3.000000
Sum of atomic charges       :   -0.0000000

LOEWDIN ATOMIC CHARGES AND SPIN DENSITIES
-----------------------------------------
   0 Sb:   -0.000000    3.000000

FINAL SINGLE POINT ENERGY      -239.770728575522

DIPOLE MOMENT
-------------
                                X             Y             Z
Electronic contribution:     -0.00000       0.00000      -0.00000
Nuclear contribution   :      0.00000       0.00000       0.00000
                        -----------------------------------------
Total Dipole Moment    :     -0.00000       0.00000      -0.00000
                        -----------------------------------------
Magnitude (a.u.)       :      0.00000
Magnitude (Debye)      :      0.00000

Rotational constants in cm-1:     0.000000     0.000000     0.000000
Rotational constants in MHz :     0.000000     0.000000     0.000000

                             ****ORCA TERMINATED NORMALLY****
TOTAL RUN TIME: 0 days 0 hours 0 minutes 23 seconds 594 msec
