                         Program Version 4.2.0 -  RELEASE  -
|  1> #
|  2> # 52_Te CCSD(T)/Def2-QZVPPD
|  3> #
|  4> ! CCSD(T) Def2-QZVPPD tightscf
|  5>
|  6> *xyz 0 3
|  7>  Te 0.0 0.0 0.0
|  8> *
|  9>
| 10> %maxcore 5000
| 11>
| 12> %pal
| 13> nprocs 24
| 14> end
| 15>
| 16>
| 17>                          ****END OF INPUT****

CARTESIAN COORDINATES (ANGSTROEM)
---------------------------------
  Te     0.000000    0.000000    0.000000

 Total Charge           Charge          ....    0
 Multiplicity           Mult            ....    3
 Number of Electrons    NEL             ....   24
 Basis Dimension        Dim             ....   91

ORBITAL ENERGIES
----------------
                 SPIN UP ORBITALS
  NO   OCC          E(Eh)            E(eV)
   0   1.0000      -7.137049      -194.2090
   1   1.0000      -5.108821      -139.0181
   2   1.0000      -5.108821      -139.0181
   3   1.0000      -5.089757      -138.4993
   4   1.0000      -1.967045       -53.5260
   5   1.0000      -1.967045       -53.5260
   6   1.0000      -1.951394       -53.1001
   7   1.0000      -1.951394       -53.1001
   8   1.0000      -1.946313       -52.9619
   9   1.0000      -0.831325       -22.6215
  10   1.0000      -0.398422       -10.8416
  11   1.0000      -0.398422       -10.8416
  12   1.0000      -0.342885        -9.3304
  13   0.0000       0.045582         1.2403
  14   0.0000       0.045582         1.2403
  15   0.0000       0.048042         1.3073
  16   0.0000       0.049879         1.3573
  17   0.0000       0.117508         3.1975

                 SPIN DOWN ORBITALS
  NO   OCC          E(Eh)            E(eV)
   0   1.0000      -7.125017      -193.8816
   1   1.0000      -5.091146      -138.5371
   2   1.0000      -5.091146      -138.5371
   3   1.0000      -5.089020      -138.4793
   4   1.0000      -1.951895       -53.1138
   5   1.0000      -1.951895       -53.1138
   6   1.0000      -1.943804       -52.8936
   7   1.0000      -1.943804       -52.8936
   8   1.0000      -1.941271       -52.8247
   9   1.0000      -0.665802       -18.1174
  10   1.0000      -0.312270        -8.4973
  11   0.0000      -0.013053        -0.3552
  12   0.0000      -0.013053        -0.3552
  13   0.0000       0.050493         1.3740
  14   0.0000       0.053335         1.4513
  15   0.0000       0.056204         1.5294

E(0)                                       ...   -267.006951561
E(0)                                       ...   -267.006951561
E(CORR)                                    ...     -0.530118396
E(TOT)                                     ...   -267.537069956
E(CCSD(T))                                 ...   -267.547792889

MULLIKEN ATOMIC CHARGES AND SPIN DENSITIES
------------------------------------------
   0 Te:    0.000000    2.000000
Sum of atomic charges       :    0.0000000

LOEWDIN ATOMIC CHARGES AND SPIN DENSITIES
-----------------------------------------
   0 Te:    0.000000    2.000000

FINAL SINGLE POINT ENERGY      -267.547792888508

DIPOLE MOMENT
-------------
                                X             Y             Z
Electronic contribution:      0.00000       0.00000      -0.00000
Nuclear contribution   :      0.00000       0.00000       0.00000
                        -----------------------------------------
Total Dipole Moment    :      0.00000       0.00000      -0.00000
                        -----------------------------------------
Magnitude (a.u.)       :      0.00000
Magnitude (Debye)      :      0.00000

Rotational constants in cm-1:     0.000000     0.000000     0.000000
Rotational constants in MHz :     0.000000     0.000000     0.000000

                             ****ORCA TERMINATED NORMALLY****
TOTAL RUN TIME: 0 days 0 hours 0 minutes 26 seconds 386 msec
