                         Program Version 4.2.0 -  RELEASE  -
|  1> # input to generate an atomic fitting density for Te
|  2> # this file is use internally by ORCA
|  3> #
|  4> # atomic ground state (S=3): 1s2 2s2 2p6 3s2 3p6 4s2 3d10 4p6 5s2 4d10 5p4
|  5> #
|  6> ! RHF AllowRHF def2-SVP def2/J  NoMulliken NoLoewdin NoMayer NoPrintMOs
|  7>
|  8> %output print[p_atomdensfit] 2 end
|  9>
| 10> %scf
| 11>   guess hcore
| 12>   maxiter 1000
| 13>   maxdisk 500000
| 14>   SCFMode Conventional
| 15>   lshift 1.000000
| 16>   hftyp rohf
| 17>   rohf_case sahf
| 18>   rohf_numop   2
| 19>   rohf_norb[1] 3
| 20>   rohf_nel[1]  4
| 21> end
| 22>
| 23> %basis
| 24>   NewECP 52
| 25>     N_core 28
| 26>     lmax f
| 27>     s 4
| 28>       1      16.8144730000    281.0458430000  2
| 29>       2       8.7935260000     61.6206560000  2
| 30>       3      15.2061680000     15.7454500000  2
| 31>       4      15.2017020000     20.7424480000  2
| 32>     p 6
| 33>       1      14.8778010000     67.4494640000  2
| 34>       2      14.2697310000    134.9043040000  2
| 35>       3       8.7244350000     14.6895470000  2
| 36>       4       8.2915150000     29.4150630000  2
| 37>       5      15.2061680000     15.7454500000  2
| 38>       6      15.2017020000     20.7424480000  2
| 39>     d 6
| 40>       1      15.2050080000     35.4320570000  2
| 41>       2      15.2258480000     53.1356870000  2
| 42>       3       6.0717690000      9.0698020000  2
| 43>       4       5.8047600000     13.1223040000  2
| 44>       5      15.2061680000     15.7454500000  2
| 45>       6      15.2017020000     20.7424480000  2
| 46>     f 2
| 47>       1      15.2061680000    -15.7454500000  2
| 48>       2      15.2017020000    -20.7424480000  2
| 49>   end
| 50>   NewGTO 52
| 51>     s 9
| 52>      1   15746.3000000000      0.0001435055
| 53>      2    2369.2500000000      0.0010576887
| 54>      3     535.8600000000      0.0044167804
| 55>      4     141.8850000000      0.0096627038
| 56>      5      27.8197000000     -0.1552702952
| 57>      6      17.3879000000      0.9740303047
| 58>      7      10.8656000000     -1.0565964608
| 59>      8       6.5688500000     -1.3797123853
| 60>      9       2.4013900000      1.8274415778
| 61>     s 1
| 62>      1       1.2865441585      1.0000000000
| 63>     s 3
| 64>      1      29.3832530230      0.0651233222
| 65>      2      15.9464080030     -0.2951275416
| 66>      3       3.6679902632      1.1575836936
| 67>     s 1
| 68>      1       0.6353359469      1.0000000000
| 69>     s 1
| 70>      1       0.2980778621      1.0000000000
| 71>     s 1
| 72>      1       0.1406124869      1.0000000000
| 73>     s 1
| 74>      1       0.0656606559      1.0000000000
| 75>     p 7
| 76>      1     750.2220000000      0.0000598114
| 77>      2     163.9610000000      0.0004715901
| 78>      3      16.9227000000      0.0959133768
| 79>      4      10.5755000000     -0.3085027477
| 80>      5       5.7046200000     -0.0263768400
| 81>      6       2.9802200000      0.5699891117
| 82>      7       1.5197000000      0.5918133818
| 83>     p 3
| 84>      1      13.9254572580     -0.0237704969
| 85>      2       4.2323766654      0.2499275232
| 86>      3       1.4547630727      0.8154746457
| 87>     p 1
| 88>      1       0.7552878369      1.0000000000
| 89>     p 1
| 90>      1       0.3182945117      1.0000000000
| 91>     p 1
| 92>      1       0.1372183092      1.0000000000
| 93>     p 1
| 94>      1       0.0570991715      1.0000000000
| 95>     s 1
| 96>      1       0.0306029104      1.0000000000
| 97>     p 1
| 98>      1       0.0183906199      1.0000000000
| 99>   end
|100>   NewAuxGTO 52
|101>     S 1
|102>      1 1310.72 1.0
|103>     S 1
|104>      1  655.36 1.0
|105>     S 1
|106>      1  327.68 1.0
|107>     S 1
|108>      1  163.84 1.0
|109>     S 1
|110>      1   81.82 1.0
|111>     S 1
|112>      1   40.96 1.0
|113>     S 1
|114>      1   20.48 1.0
|115>     S 1
|116>      1   10.24 1.0
|117>     S 1
|118>      1    5.12 1.0
|119>     S 1
|120>      1    2.56 1.0
|121>     S 1
|122>      1    1.28 1.0
|123>     S 1
|124>      1    0.64 1.0
|125>     S 1
|126>      1    0.32 1.0
|127>     S 1
|128>      1    0.16 1.0
|129>     S 1
|130>      1    0.08 1.0
|131>     S 1
|132>      1    0.04 1.0
|133>     S 1
|134>      1    0.02 1.0
|135>     S 1
|136>      1    0.01 1.0
|137>   end
|138> end
|139>
|140> * xyz 0 3
|141> 52  0.0 0.0 0.0
|142> *
|143>
|144>
|145>                          ****END OF INPUT****

CARTESIAN COORDINATES (ANGSTROEM)
---------------------------------
  Te     0.000000    0.000000    0.000000

 Total Charge           Charge          ....    0
 Multiplicity           Mult            ....    3
 Number of Electrons    NEL             ....   24
 Basis Dimension        Dim             ....   29

ORBITAL ENERGIES
----------------

  NO   OCC          E(Eh)            E(eV)
   0   2.0000     -11.648549      -316.9731
   1   2.0000      -9.301165      -253.0976
   2   2.0000      -9.299692      -253.0575
   3   2.0000      -9.295448      -252.9420
   4   2.0000      -3.099360       -84.3379
   5   2.0000      -2.232608       -60.7524
   6   2.0000      -2.229596       -60.6704
   7   2.0000      -2.223081       -60.4931
   8   2.0000      -0.666603       -18.1392
   9   2.0000      -0.410604       -11.1731
  10   1.3333      -0.424497       -11.5512
  11   1.3333      -0.419087       -11.4039
  12   1.3333      -0.065632        -1.7859
  13   0.0000      -0.026550        -0.7225
  14   0.0000      -0.005138        -0.1398
  15   0.0000      -0.000947        -0.0258
  16   0.0000       0.201216         5.4754
  17   0.0000       0.211396         5.7524

CleanUpVectors: The p-vectors have cracked symmetry
CleanUpVectors: The p-vectors have cracked symmetry
CleanUpVectors: The p-vectors have cracked symmetry
CleanUpVectors: The p-vectors have cracked symmetry
CleanUpVectors: The p-vectors have cracked symmetry
CleanUpVectors: The p-vectors have cracked symmetry
CleanUpVectors: The p-vectors have cracked symmetry
CleanUpVectors: The p-vectors have cracked symmetry
CleanUpVectors: The p-vectors have cracked symmetry
CleanUpVectors: The p-vectors have cracked symmetry
CleanUpVectors: The p-vectors have cracked symmetry
CleanUpVectors: The p-vectors have cracked symmetry
CleanUpVectors: The p-vectors have cracked symmetry
CleanUpVectors: The p-vectors have cracked symmetry
CleanUpVectors: The p-vectors have cracked symmetry
CleanUpVectors: The p-vectors have cracked symmetry
CleanUpVectors: The p-vectors have cracked symmetry
CleanUpVectors: The p-vectors have cracked symmetry
CleanUpVectors: The p-vectors have cracked symmetry
CleanUpVectors: The p-vectors have cracked symmetry
--------------------------
ATOM BASIS FOR ELEMENT Te
--------------------------
 NewGTO Te
 S 18
    1      15746.299999999999         0.000061308713
    2       2369.250000000000         0.000451867927
    3        535.860000000000         0.001886945946
    4        141.885000000000         0.004128120059
    5         27.819700000000        -0.066334892748
    6         17.387900000000         0.416127216816
    7         10.865600000000        -0.451401298716
    8          6.568850000000        -0.589443544139
    9          2.401390000000         0.780723324515
   10          1.286544158500         0.723804393099
   11         29.383253023000         0.006433843265
   12         15.946408003000        -0.029157055902
   13          3.667990263200         0.114363208133
   14          0.635335946900        -0.218226285178
   15          0.298077862100         0.160268719140
   16          0.140612486900        -0.095791073927
   17          0.065660655900         0.044165247036
   18          0.030602910400        -0.011832068639
 P 30
    1        750.222000000000        -0.000041807402
    2        163.961000000000        -0.000329635432
    3         16.922700000000        -0.067042220266
    4         10.575500000000         0.215639464004
    5          5.704620000000         0.018437072869
    6          2.980220000000        -0.398415078800
    7          1.519700000000        -0.413669963697
    8        750.222000000000         0.000040123344
    9        163.961000000000         0.000316357280
   10         16.922700000000         0.064341670821
   11         10.575500000000        -0.206953220731
   12          5.704620000000        -0.017694403150
   13          2.980220000000         0.382366391636
   14          1.519700000000         0.397006789561
   15         13.925457258000         0.001898569259
   16          4.232376665400        -0.019961918113
   17          1.454763072700        -0.065132634824
   18         13.925457258000        -0.001822092375
   19          4.232376665400         0.019157825608
   20          1.454763072700         0.062509006010
   21          0.755287836900         0.105940925027
   22          0.755287836900        -0.101673484225
   23          0.318294511700        -0.078673612642
   24          0.318294511700         0.075504535304
   25          0.137218309200         0.043726718506
   26          0.137218309200        -0.041965348359
   27          0.057099171500        -0.017907187550
   28          0.057099171500         0.017185862313
   29          0.018390619900         0.004415070533
   30          0.018390619900        -0.004237225643
 S 18
    1      15746.299999999999         0.000044078852
    2       2369.250000000000         0.000324877467
    3        535.860000000000         0.001356649104
    4        141.885000000000         0.002967976052
    5         27.819700000000        -0.047692501738
    6         17.387900000000         0.299181127591
    7         10.865600000000        -0.324541976801
    8          6.568850000000        -0.423789593808
    9          2.401390000000         0.561313163682
   10          1.286544158500         1.433481516531
   11         29.383253023000         0.016237708055
   12         15.946408003000        -0.073586461769
   13          3.667990263200         0.288629410024
   14          0.635335946900        -2.007802596520
   15          0.298077862100         0.016532194571
   16          0.140612486900        -0.253999477570
   17          0.065660655900         0.122442834020
   18          0.030602910400        -0.034190304425
 P 30
    1        750.222000000000        -0.000026446370
    2        163.961000000000        -0.000208519549
    3         16.922700000000        -0.042409317066
    4         10.575500000000         0.136408405996
    5          5.704620000000         0.011662854631
    6          2.980220000000        -0.252027921119
    7          1.519700000000        -0.261677799178
    8        750.222000000000         0.000025381075
    9        163.961000000000         0.000200120105
   10         16.922700000000         0.040701013592
   11         10.575500000000        -0.130913694692
   12          5.704620000000        -0.011193059396
   13          2.980220000000         0.241875902576
   14          1.519700000000         0.251137070764
   15         13.925457258000         0.007939042917
   16          4.232376665400        -0.083472606452
   17          1.454763072700        -0.272358135272
   18         13.925457258000        -0.007619247751
   19          4.232376665400         0.080110219282
   20          1.454763072700         0.261387188770
   21          0.755287836900         0.863614226683
   22          0.755287836900        -0.828826701540
   23          0.318294511700         0.232284149487
   24          0.318294511700        -0.222927436222
   25          0.137218309200         0.049920343323
   26          0.137218309200        -0.047909485761
   27          0.057099171500        -0.016674553701
   28          0.057099171500         0.016002880588
   29          0.018390619900         0.004571914695
   30          0.018390619900        -0.004387751914
 S 18
    1      15746.299999999999        -0.000008077802
    2       2369.250000000000        -0.000059536392
    3        535.860000000000        -0.000248616789
    4        141.885000000000        -0.000543905328
    5         27.819700000000         0.008740032042
    6         17.387900000000        -0.054827332311
    7         10.865600000000         0.059474910581
    8          6.568850000000         0.077662829460
    9          2.401390000000        -0.102865122555
   10          1.286544158500        -0.451325886881
   11         29.383253023000        -0.003186117643
   12         15.946408003000         0.014438929640
   13          3.667990263200        -0.056634055274
   14          0.635335946900         1.009461038794
   15          0.298077862100        -0.530879716108
   16          0.140612486900         0.742764214750
   17          0.065660655900        -2.846487046771
   18          0.030602910400         2.651179738676
 S 18
    1      15746.299999999999         0.000014924005
    2       2369.250000000000         0.000109995443
    3        535.860000000000         0.000459327700
    4        141.885000000000         0.001004882993
    5         27.819700000000        -0.016147496831
    6         17.387900000000         0.101295300807
    7         10.865600000000        -0.109881854612
    8          6.568850000000        -0.143484633303
    9          2.401390000000         0.190046699201
   10          1.286544158500         0.469763245347
   11         29.383253023000         0.009413547924
   12         15.946408003000        -0.042660557888
   13          3.667990263200         0.167328219870
   14          0.635335946900        -0.451198008376
   15          0.298077862100        -3.377436347557
   16          0.140612486900         8.377853312908
   17          0.065660655900        -8.051251245789
   18          0.030602910400         2.991301962415
 S 18
    1      15746.299999999999        -0.000038272390
    2       2369.250000000000        -0.000282081693
    3        535.860000000000        -0.001177939115
    4        141.885000000000        -0.002577007624
    5         27.819700000000         0.041410017605
    6         17.387900000000        -0.259770305798
    7         10.865600000000         0.281790396462
    8          6.568850000000         0.367964227102
    9          2.401390000000        -0.487371958760
   10          1.286544158500        -3.530713902740
   11         29.383253023000        -0.009189730574
   12         15.946408003000         0.041646256682
   13          3.667990263200        -0.163349809285
   14          0.635335946900        10.812759028223
   15          0.298077862100       -14.675317871549
   16          0.140612486900        12.107712027360
   17          0.065660655900        -6.209717824093
   18          0.030602910400         1.654404303841
 S 18
    1      15746.299999999999         0.000055262065
    2       2369.250000000000         0.000407301889
    3        535.860000000000         0.001700843548
    4        141.885000000000         0.003720979068
    5         27.819700000000        -0.059792531187
    6         17.387900000000         0.375086150866
    7         10.865600000000        -0.406881282428
    8          6.568850000000        -0.531308939165
    9          2.401390000000         0.703723512546
   10          1.286544158500       -10.115719023351
   11         29.383253023000         0.265922101228
   12         15.946408003000        -1.205112597780
   13          3.667990263200         4.726833302576
   14          0.635335946900        11.837724393626
   15          0.298077862100        -8.970454447147
   16          0.140612486900         5.438173068452
   17          0.065660655900        -2.479462417744
   18          0.030602910400         0.652592247075
 P 30
    1        750.222000000000        -0.000246934510
    2        163.961000000000        -0.001946984527
    3         16.922700000000        -0.395983419770
    4         10.575500000000         1.273669816646
    5          5.704620000000         0.108898170979
    6          2.980220000000        -2.353230020807
    7          1.519700000000        -2.443332667555
    8        750.222000000000         0.000236987661
    9        163.961000000000         0.001868557409
   10         16.922700000000         0.380032682617
   11         10.575500000000        -1.222364707768
   12          5.704620000000        -0.104511608272
   13          2.980220000000         2.258438795597
   14          1.519700000000         2.344911988273
   15         13.925457258000        -0.108483961752
   16          4.232376665400         1.140620996761
   17          1.454763072700         3.721668951473
   18         13.925457258000         0.104114083942
   19          4.232376665400        -1.094675270747
   20          1.454763072700        -3.571755191824
   21          0.755287836900        -0.495542106509
   22          0.755287836900         0.475581013456
   23          0.318294511700         0.027558463459
   24          0.318294511700        -0.026448372014
   25          0.137218309200         0.029827489168
   26          0.137218309200        -0.028625998358
   27          0.057099171500        -0.018803592237
   28          0.057099171500         0.018046158611
   29          0.018390619900         0.005233573729
   30          0.018390619900        -0.005022758440
 P 30
    1        750.222000000000        -0.000012056363
    2        163.961000000000        -0.000095059828
    3         16.922700000000        -0.019333546453
    4         10.575500000000         0.062185822274
    5          5.704620000000         0.005316858591
    6          2.980220000000        -0.114894411355
    7          1.519700000000        -0.119293594804
    8        750.222000000000         0.000011570717
    9        163.961000000000         0.000091230692
   10         16.922700000000         0.018554765589
   11         10.575500000000        -0.059680894971
   12          5.704620000000        -0.005102688483
   13          2.980220000000         0.110266312257
   14          1.519700000000         0.114488290769
   15         13.925457258000         0.004613605689
   16          4.232376665400        -0.048508327264
   17          1.454763072700        -0.158275129055
   18         13.925457258000        -0.004427763540
   19          4.232376665400         0.046554347579
   20          1.454763072700         0.151899597178
   21          0.755287836900         0.600388953011
   22          0.755287836900        -0.576204490605
   23          0.318294511700         0.155748501286
   24          0.318294511700        -0.149474745323
   25          0.137218309200        -0.626859122485
   26          0.137218309200         0.601608406587
   27          0.057099171500        -0.278344398460
   28          0.057099171500         0.267132317347
   29          0.018390619900         0.004755120063
   30          0.018390619900        -0.004563577527
 P 30
    1        750.222000000000        -0.000003211078
    2        163.961000000000        -0.000025318129
    3         16.922700000000        -0.005149275250
    4         10.575500000000         0.016562502710
    5          5.704620000000         0.001416086201
    6          2.980220000000        -0.030600849676
    7          1.519700000000        -0.031772523301
    8        750.222000000000         0.000003081732
    9        163.961000000000         0.000024298281
   10         16.922700000000         0.004941855621
   11         10.575500000000        -0.015895343159
   12          5.704620000000        -0.001359044373
   13          2.980220000000         0.029368206912
   14          1.519700000000         0.030492683971
   15         13.925457258000         0.001293665088
   16          4.232376665400        -0.013601840660
   17          1.454763072700        -0.044380691055
   18         13.925457258000        -0.001241554544
   19          4.232376665400         0.013053940499
   20          1.454763072700         0.042592978026
   21          0.755287836900         0.182254581476
   22          0.755287836900        -0.174913125489
   23          0.318294511700        -0.010480919679
   24          0.318294511700         0.010058734350
   25          0.137218309200        -0.082388573906
   26          0.137218309200         0.079069853003
   27          0.057099171500        -0.436403588035
   28          0.057099171500         0.418824673375
   29          0.018390619900         0.939860490958
   30          0.018390619900        -0.902001665284
 P 33
    1        750.222000000000        -0.000006691687
    2        163.961000000000        -0.000052761399
    3         16.922700000000        -0.010730767902
    4         10.575500000000         0.034515220851
    5          5.704620000000         0.002951035168
    6          2.980220000000        -0.063770258837
    7          1.519700000000        -0.066211953467
    8        750.222000000000        -0.000006972550
    9        163.961000000000        -0.000054975901
   10         16.922700000000        -0.011181159833
   11         10.575500000000         0.035963894151
   12          5.704620000000         0.003074896055
   13          2.980220000000        -0.066446824975
   14          1.519700000000        -0.068991002443
   15        750.222000000000         0.000005872888
   16        163.961000000000         0.000046305482
   17         16.922700000000         0.009417744599
   18         10.575500000000        -0.030291917382
   19          5.704620000000        -0.002589944706
   20          2.980220000000         0.055967291083
   21          1.519700000000         0.058110218469
   22         13.925457258000         0.002565157443
   23          4.232376665400        -0.026970552997
   24          1.454763072700        -0.088000720642
   25         13.925457258000         0.002672822265
   26          4.232376665400        -0.028102561400
   27          1.454763072700        -0.091694288039
   28         13.925457258000        -0.002251283214
   29          4.232376665400         0.023670419688
   30          1.454763072700         0.077232898808
   31          0.755287836900         0.289184384419
   32          0.755287836900         0.301322035182
   33          0.755287836900        -0.253799606820
 P 33
    1        750.222000000000        -0.000013768669
    2        163.961000000000        -0.000108560710
    3         16.922700000000        -0.022079395428
    4         10.575500000000         0.071017770247
    5          5.704620000000         0.006071985993
    6          2.980220000000        -0.131212302256
    7          1.519700000000        -0.136236280198
    8        750.222000000000        -0.000014346568
    9        163.961000000000        -0.000113117222
   10         16.922700000000        -0.023006112101
   11         10.575500000000         0.073998529027
   12          5.704620000000         0.006326839469
   13          2.980220000000        -0.136719546719
   14          1.519700000000        -0.141954391129
   15        750.222000000000        -0.000032721174
   16        163.961000000000        -0.000257993991
   17         16.922700000000        -0.052471574068
   18         10.575500000000         0.168773379856
   19          5.704620000000         0.014430044691
   20          2.980220000000        -0.311825387554
   21          1.519700000000        -0.323764846295
   22         13.925457258000         0.006917990542
   23          4.232376665400        -0.072737067674
   24          1.454763072700        -0.237329741565
   25         13.925457258000         0.007208352531
   26          4.232376665400        -0.075789988828
   27          1.454763072700        -0.247290948576
   28         13.925457258000         0.016440570318
   29          4.232376665400        -0.172859281692
   30          1.454763072700        -0.564012957393
   31          0.755287836900         1.340462543377
   32          0.755287836900         1.396724454747
   33          0.755287836900         3.185602606651
 P 33
    1        750.222000000000        -0.000202527659
    2        163.961000000000        -0.001596853427
    3         16.922700000000        -0.324772730413
    4         10.575500000000         1.044622586060
    5          5.704620000000         0.089314740366
    6          2.980220000000        -1.930042777023
    7          1.519700000000        -2.003942039317
    8        750.222000000000        -0.000211028153
    9        163.961000000000        -0.001663876580
   10         16.922700000000        -0.338404095807
   11         10.575500000000         1.088467499243
   12          5.704620000000         0.093063459845
   13          2.980220000000        -2.011050558328
   14          1.519700000000        -2.088051521449
   15        750.222000000000         0.000177746252
   16        163.961000000000         0.001401461471
   17         16.922700000000         0.285033341724
   18         10.575500000000        -0.916801931510
   19          5.704620000000        -0.078386134449
   20          2.980220000000         1.693881569749
   21          1.519700000000         1.758738473393
   22         13.925457258000        -0.088972407955
   23          4.232376665400         0.935472810973
   24          1.454763072700         3.052302320779
   25         13.925457258000        -0.092706759054
   26          4.232376665400         0.974736488333
   27          1.454763072700         3.180413594695
   28         13.925457258000         0.078085690040
   29          4.232376665400        -0.821007789243
   30          1.454763072700        -2.678820753623
   31          0.755287836900        -0.406263581176
   32          0.755287836900        -0.423315281650
   33          0.755287836900         0.356552922457
 end
  // -----------------------------------------------
  // The basis set
  // -----------------------------------------------
  BAS[ATNO] = new BFNGauss[NSH];
  // Basis function   1 L = s
  InitBFNGauss(BAS[ATNO][  0]);
  BAS[ATNO][  0].l  = 0;
  BAS[ATNO][  0].ng = 18;
  BAS[ATNO][  0].a[  0] =     15746.299999999999;     BAS[ATNO][  0].d[  0] =         0.000061308713;
  BAS[ATNO][  0].a[  1] =      2369.250000000000;     BAS[ATNO][  0].d[  1] =         0.000451867927;
  BAS[ATNO][  0].a[  2] =       535.860000000000;     BAS[ATNO][  0].d[  2] =         0.001886945946;
  BAS[ATNO][  0].a[  3] =       141.885000000000;     BAS[ATNO][  0].d[  3] =         0.004128120059;
  BAS[ATNO][  0].a[  4] =        27.819700000000;     BAS[ATNO][  0].d[  4] =        -0.066334892748;
  BAS[ATNO][  0].a[  5] =        17.387900000000;     BAS[ATNO][  0].d[  5] =         0.416127216816;
  BAS[ATNO][  0].a[  6] =        10.865600000000;     BAS[ATNO][  0].d[  6] =        -0.451401298716;
  BAS[ATNO][  0].a[  7] =         6.568850000000;     BAS[ATNO][  0].d[  7] =        -0.589443544139;
  BAS[ATNO][  0].a[  8] =         2.401390000000;     BAS[ATNO][  0].d[  8] =         0.780723324515;
  BAS[ATNO][  0].a[  9] =         1.286544158500;     BAS[ATNO][  0].d[  9] =         0.723804393099;
  BAS[ATNO][  0].a[ 10] =        29.383253023000;     BAS[ATNO][  0].d[ 10] =         0.006433843265;
  BAS[ATNO][  0].a[ 11] =        15.946408003000;     BAS[ATNO][  0].d[ 11] =        -0.029157055902;
  BAS[ATNO][  0].a[ 12] =         3.667990263200;     BAS[ATNO][  0].d[ 12] =         0.114363208133;
  BAS[ATNO][  0].a[ 13] =         0.635335946900;     BAS[ATNO][  0].d[ 13] =        -0.218226285178;
  BAS[ATNO][  0].a[ 14] =         0.298077862100;     BAS[ATNO][  0].d[ 14] =         0.160268719140;
  BAS[ATNO][  0].a[ 15] =         0.140612486900;     BAS[ATNO][  0].d[ 15] =        -0.095791073927;
  BAS[ATNO][  0].a[ 16] =         0.065660655900;     BAS[ATNO][  0].d[ 16] =         0.044165247036;
  BAS[ATNO][  0].a[ 17] =         0.030602910400;     BAS[ATNO][  0].d[ 17] =        -0.011832068639;

FINAL SINGLE POINT ENERGY      -234.434779447877

DIPOLE MOMENT
-------------
                                X             Y             Z
Electronic contribution:      0.00000       0.00000       0.00000
Nuclear contribution   :      0.00000       0.00000       0.00000
                        -----------------------------------------
Total Dipole Moment    :      0.00000       0.00000       0.00000
                        -----------------------------------------
Magnitude (a.u.)       :      0.00000
Magnitude (Debye)      :      0.00000

Rotational constants in cm-1:     0.000000     0.000000     0.000000
Rotational constants in MHz :     0.000000     0.000000     0.000000

                             ****ORCA TERMINATED NORMALLY****
TOTAL RUN TIME: 0 days 0 hours 0 minutes 1 seconds 71 msec
