                         Program Version 4.2.0 -  RELEASE  -
|  1> # input to generate an atomic fitting density for I
|  2> # this file is use internally by ORCA
|  3> #
|  4> # atomic ground state (S=2): 1s2 2s2 2p6 3s2 3p6 4s2 3d10 4p6 5s2 4d10 5p5
|  5> #
|  6> ! RHF AllowRHF def2-SVP def2/J  NoMulliken NoLoewdin NoMayer NoPrintMOs
|  7>
|  8> %output print[p_atomdensfit] 2 end
|  9>
| 10> %scf
| 11>   guess hcore
| 12>   maxiter 1000
| 13>   maxdisk 500000
| 14>   SCFMode Conventional
| 15>   lshift 1.000000
| 16>   hftyp rohf
| 17>   rohf_case sahf
| 18>   rohf_numop   2
| 19>   rohf_norb[1] 3
| 20>   rohf_nel[1]  5
| 21> end
| 22>
| 23> %basis
| 24>   NewECP 53
| 25>     N_core 28
| 26>     lmax f
| 27>     s 7
| 28>       1      40.0158350000     49.9942930000  2
| 29>       2      17.4297470000    281.0253170000  2
| 30>       3       9.0054840000     61.5733260000  2
| 31>       4      19.4586090000     21.8420400000  2
| 32>       5      19.3492600000     28.4681910000  2
| 33>       6       4.8237670000      0.2437130000  2
| 34>       7       4.8843150000      0.3208040000  2
| 35>     p 8
| 36>       1      15.3554660000     67.4428410000  2
| 37>       2      14.9718330000    134.8811370000  2
| 38>       3       8.9601640000     14.6750510000  2
| 39>       4       8.2590960000     29.3756660000  2
| 40>       5      19.4586090000     21.8420400000  2
| 41>       6      19.3492600000     28.4681910000  2
| 42>       7       4.8237670000      0.2437130000  2
| 43>       8       4.8843150000      0.3208040000  2
| 44>     d 10
| 45>       1      15.0689080000     35.4395290000  2
| 46>       2      14.5553220000     53.1760570000  2
| 47>       3       6.7186470000      9.0671950000  2
| 48>       4       6.4563930000     13.2069370000  2
| 49>       5       1.1917790000      0.0893350000  2
| 50>       6       1.2911570000      0.0523800000  2
| 51>       7      19.4586090000     21.8420400000  2
| 52>       8      19.3492600000     28.4681910000  2
| 53>       9       4.8237670000      0.2437130000  2
| 54>      10       4.8843150000      0.3208040000  2
| 55>     f 4
| 56>       1      19.4586090000    -21.8420400000  2
| 57>       2      19.3492600000    -28.4681910000  2
| 58>       3       4.8237670000     -0.2437130000  2
| 59>       4       4.8843150000     -0.3208040000  2
| 60>   end
| 61>   NewGTO 53
| 62>     s 9
| 63>      1   16788.4000000000      0.0001035868
| 64>      2    2526.6400000000      0.0007655317
| 65>      3     571.9840000000      0.0031505547
| 66>      4     150.4340000000      0.0067179832
| 67>      5      29.5405000000     -0.1343849292
| 68>      6      18.4571000000      0.8592550642
| 69>      7      11.5286000000     -0.8902275185
| 70>      8       7.0828900000     -1.3678132143
| 71>      9       2.5040500000      1.8083451524
| 72>     s 1
| 73>      1       1.3540144781      1.0000000000
| 74>     s 3
| 75>      1      25.0586179330      0.0886865792
| 76>      2      15.6219793720     -0.3094370527
| 77>      3       3.3536325162      1.1474877803
| 78>     s 1
| 79>      1       0.6743047270      1.0000000000
| 80>     s 1
| 81>      1       0.3272713695      1.0000000000
| 82>     s 1
| 83>      1       0.1574936412      1.0000000000
| 84>     s 1
| 85>      1       0.0743777278      1.0000000000
| 86>     p 7
| 87>      1     656.2740000000      0.0001022631
| 88>      2     149.2320000000      0.0006888713
| 89>      3      19.0153000000      0.0673396998
| 90>      4      10.7378000000     -0.2801087878
| 91>      5       6.4420800000     -0.0049164959
| 92>      6       3.0920300000      0.5776169143
| 93>      7       1.5787400000      0.5699910077
| 94>     p 3
| 95>      1      15.6605118930     -0.0244846280
| 96>      2       4.9250669812      0.2600416205
| 97>      3       1.6692319982      0.8088703667
| 98>     p 1
| 99>      1       0.7781789818      1.0000000000
|100>     p 1
|101>      1       0.3560884372      1.0000000000
|102>     p 1
|103>      1       0.1549324265      1.0000000000
|104>     p 1
|105>      1       0.0646662125      1.0000000000
|106>     s 1
|107>      1       0.0355550486      1.0000000000
|108>     p 1
|109>      1       0.0186676768      1.0000000000
|110>   end
|111>   NewAuxGTO 53
|112>     S 1
|113>      1 1310.72 1.0
|114>     S 1
|115>      1  655.36 1.0
|116>     S 1
|117>      1  327.68 1.0
|118>     S 1
|119>      1  163.84 1.0
|120>     S 1
|121>      1   81.82 1.0
|122>     S 1
|123>      1   40.96 1.0
|124>     S 1
|125>      1   20.48 1.0
|126>     S 1
|127>      1   10.24 1.0
|128>     S 1
|129>      1    5.12 1.0
|130>     S 1
|131>      1    2.56 1.0
|132>     S 1
|133>      1    1.28 1.0
|134>     S 1
|135>      1    0.64 1.0
|136>     S 1
|137>      1    0.32 1.0
|138>     S 1
|139>      1    0.16 1.0
|140>     S 1
|141>      1    0.08 1.0
|142>     S 1
|143>      1    0.04 1.0
|144>     S 1
|145>      1    0.02 1.0
|146>     S 1
|147>      1    0.01 1.0
|148>   end
|149> end
|150>
|151> * xyz 0 2
|152> 53  0.0 0.0 0.0
|153> *
|154>
|155>
|156>                          ****END OF INPUT****

CARTESIAN COORDINATES (ANGSTROEM)
---------------------------------
  I      0.000000    0.000000    0.000000

 Total Charge           Charge          ....    0
 Multiplicity           Mult            ....    2
 Number of Electrons    NEL             ....   25
 Basis Dimension        Dim             ....   29

ORBITAL ENERGIES
----------------

  NO   OCC          E(Eh)            E(eV)
   0   2.0000     -12.733719      -346.5021
   1   2.0000     -10.257868      -279.1308
   2   2.0000     -10.257868      -279.1308
   3   2.0000     -10.252192      -278.9763
   4   2.0000      -3.529623       -96.0459
   5   2.0000      -2.598103       -70.6980
   6   2.0000      -2.598103       -70.6980
   7   2.0000      -2.587818       -70.4181
   8   2.0000      -0.519570       -14.1382
   9   2.0000      -0.070293        -1.9128
  10   1.6667      -0.829930       -22.5836
  11   1.6667      -0.539160       -14.6713
  12   1.6667      -0.539160       -14.6713
  13   0.0000      -0.050468        -1.3733
  14   0.0000      -0.018036        -0.4908
  15   0.0000      -0.018036        -0.4908
  16   0.0000       0.182861         4.9759
  17   0.0000       0.182861         4.9759

CleanUpVectors: The p-vectors have cracked symmetry
CleanUpVectors: The p-vectors have cracked symmetry
CleanUpVectors: The p-vectors have cracked symmetry
CleanUpVectors: The p-vectors have cracked symmetry
CleanUpVectors: The p-vectors have cracked symmetry
CleanUpVectors: The p-vectors have cracked symmetry
CleanUpVectors: The p-vectors have cracked symmetry
CleanUpVectors: The p-vectors have cracked symmetry
CleanUpVectors: The p-vectors have cracked symmetry
CleanUpVectors: The p-vectors have cracked symmetry
CleanUpVectors: The p-vectors have cracked symmetry
CleanUpVectors: The p-vectors have cracked symmetry
CleanUpVectors: The p-vectors have cracked symmetry
CleanUpVectors: The p-vectors have cracked symmetry
CleanUpVectors: The p-vectors have cracked symmetry
CleanUpVectors: The p-vectors have cracked symmetry
CleanUpVectors: The p-vectors have cracked symmetry
CleanUpVectors: The p-vectors have cracked symmetry
CleanUpVectors: The p-vectors have cracked symmetry
CleanUpVectors: The p-vectors have cracked symmetry
--------------------------
ATOM BASIS FOR ELEMENT I
--------------------------
 NewGTO I
 S 18
    1      16788.400000000001         0.000045562297
    2       2526.640000000000         0.000336716481
    3        571.984000000000         0.001385760630
    4        150.434000000000         0.002954881764
    5         29.540500000000        -0.059108748100
    6         18.457100000000         0.377940379520
    7         11.528600000000        -0.391563506832
    8          7.082890000000        -0.601627929661
    9          2.504050000000         0.795394384830
   10          1.354014478100         0.663650375252
   11         25.058617933000         0.010501364389
   12         15.621979372000        -0.036640394467
   13          3.353632516200         0.135873853985
   14          0.674304727000        -0.206545688995
   15          0.327271369500         0.157431353966
   16          0.157493641200        -0.093366065660
   17          0.074377727800         0.042435967414
   18          0.035555048600        -0.011417742061
 P 33
    1        656.274000000000        -0.000000856858
    2        149.232000000000        -0.000005772024
    3         19.015300000000        -0.000564236499
    4         10.737800000000         0.002347019697
    5          6.442080000000         0.000041195111
    6          3.092030000000        -0.004839827718
    7          1.578740000000        -0.004775930569
    8        656.274000000000        -0.000006346901
    9        149.232000000000        -0.000042754404
   10         19.015300000000        -0.004179400003
   11         10.737800000000         0.017384791915
   12          6.442080000000         0.000305139510
   13          3.092030000000        -0.035849463849
   14          1.578740000000        -0.035376166311
   15        656.274000000000        -0.000100827171
   16        149.232000000000        -0.000679198501
   17         19.015300000000        -0.066394148170
   18         10.737800000000         0.276175635116
   19          6.442080000000         0.004847460833
   20          3.092030000000        -0.569506295799
   21          1.578740000000        -0.561987468507
   22         15.660511893000         0.000020277825
   23          4.925066981200        -0.000215362815
   24          1.669231998200        -0.000669895069
   25         15.660511893000         0.000150201451
   26          4.925066981200        -0.001595230637
   27          1.669231998200        -0.004962031801
   28         15.660511893000         0.002386107429
   29          4.925066981200        -0.025341910134
   30          1.669231998200        -0.078827074311
   31          0.778178981800         0.001434545298
   32          0.778178981800         0.010625931910
   33          0.778178981800         0.168804062090
 S 18
    1      16788.400000000001         0.000031559215
    2       2526.640000000000         0.000233230292
    3        571.984000000000         0.000959862007
    4        150.434000000000         0.002046730640
    5         29.540500000000        -0.040942310214
    6         18.457100000000         0.261784469440
    7         11.528600000000        -0.271220675119
    8          7.082890000000        -0.416724057288
    9          2.504050000000         0.550938476838
   10          1.354014478100         1.371637903884
   11         25.058617933000         0.028098399425
   12         15.621979372000        -0.098038350131
   13          3.353632516200         0.363556360799
   14          0.674304727000        -2.105354087276
   15          0.327271369500         0.141783480234
   16          0.157493641200        -0.308806045857
   17          0.074377727800         0.142218194685
   18          0.035555048600        -0.039736634317
 P 31
    1        656.274000000000        -0.000066133193
    2        149.232000000000        -0.000445490686
    3         19.015300000000        -0.043548350855
    4         10.737800000000         0.181145383853
    5          6.442080000000         0.003179480887
    6          3.092030000000        -0.373542859838
    7          1.578740000000        -0.368611212427
    8        656.274000000000        -0.000008498005
    9        149.232000000000        -0.000057244807
   10         19.015300000000        -0.005595890135
   11         10.737800000000         0.023276878380
   12          6.442080000000         0.000408557968
   13          3.092030000000        -0.047999631751
   14          1.578740000000        -0.047365923320
   15         10.737800000000         0.000000003967
   16         15.660511893000         0.009793879875
   17          4.925066981200        -0.104016952741
   18          1.669231998200        -0.323549093968
   19         15.660511893000         0.001258497158
   20          4.925066981200        -0.013366004184
   21          1.669231998200        -0.041575516583
   22          0.778178981800         1.242170347514
   23          0.778178981800         0.159616808840
   24          0.356088437200         0.192274484335
   25          0.356088437200         0.024706949150
   26          0.154932426500         0.121128290493
   27          0.154932426500         0.015564782421
   28          0.064666212500        -0.038916689960
   29          0.064666212500        -0.005000729469
   30          0.018667676800         0.009280375255
   31          0.018667676800         0.001192512673
 S 18
    1      16788.400000000001        -0.000006097670
    2       2526.640000000000        -0.000045063267
    3        571.984000000000        -0.000185458406
    4        150.434000000000        -0.000395456221
    5         29.540500000000         0.007910611670
    6         18.457100000000        -0.050580323096
    7         11.528600000000         0.052403526486
    8          7.082890000000         0.080516760619
    9          2.504050000000        -0.106448813500
   10          1.354014478100        -0.477032446451
   11         25.058617933000        -0.006227883739
   12         15.621979372000         0.021729758958
   13          3.353632516200        -0.080580630715
   14          0.674304727000         1.157985356201
   15          0.327271369500        -0.590247838801
   16          0.157493641200         0.563245733859
   17          0.074377727800        -2.689921633757
   18          0.035555048600         2.637297578495
 S 18
    1      16788.400000000001         0.000009922320
    2       2526.640000000000         0.000073328363
    3        571.984000000000         0.000301783740
    4        150.434000000000         0.000643498777
    5         29.540500000000        -0.012872395622
    6         18.457100000000         0.082305889450
    7         11.528600000000        -0.085272663235
    8          7.082890000000        -0.131019400286
    9          2.504050000000         0.173216850736
   10          1.354014478100         0.427472947718
   11         25.058617933000         0.016408016924
   12         15.621979372000        -0.057249343061
   13          3.353632516200         0.212298175088
   14          0.674304727000        -0.492768208541
   15          0.327271369500        -3.444766533200
   16          0.157493641200         8.754644650340
   17          0.074377727800        -8.622197066465
   18          0.035555048600         3.310626885223
 S 18
    1      16788.400000000001        -0.000027001601
    2       2526.640000000000        -0.000199548415
    3        571.984000000000        -0.000821243845
    4        150.434000000000        -0.001751152695
    5         29.540500000000         0.035029639690
    6         18.457100000000        -0.223978949724
    7         11.528600000000         0.232052428803
    8          7.082890000000         0.356542986968
    9          2.504050000000        -0.471374874409
   10          1.354014478100        -3.587944727647
   11         25.058617933000        -0.016131920296
   12         15.621979372000         0.056286012108
   13          3.353632516200        -0.208725847576
   14          0.674304727000        11.748783460875
   15          0.327271369500       -16.407071721052
   16          0.157493641200        13.571516599584
   17          0.074377727800        -6.994220298849
   18          0.035555048600         1.887335501126
 S 18
    1      16788.400000000001        -0.000002756582
    2       2526.640000000000        -0.000020371814
    3        571.984000000000        -0.000083840438
    4        150.434000000000        -0.000178774440
    5         29.540500000000         0.003576161139
    6         18.457100000000        -0.022865916496
    7         11.528600000000         0.023690134570
    8          7.082890000000         0.036399323139
    9          2.504050000000        -0.048122462088
   10          1.354014478100        11.415405594301
   11         25.058617933000        -0.408533318650
   12         15.621979372000         1.425416869081
   13          3.353632516200        -5.285884236656
   14          0.674304727000       -13.869476813823
   15          0.327271369500        10.835136763026
   16          0.157493641200        -6.483263499317
   17          0.074377727800         2.918335924846
   18          0.035555048600        -0.769494927210
 P 33
    1        656.274000000000        -0.000526255306
    2        149.232000000000        -0.003544994987
    3         19.015300000000        -0.346536280748
    4         10.737800000000         1.441465551784
    5          6.442080000000         0.025300739513
    6          3.092030000000        -2.972469698757
    7          1.578740000000        -2.933226082906
    8        656.274000000000        -0.000078638654
    9        149.232000000000        -0.000529730779
   10         19.015300000000        -0.051783129305
   11         10.737800000000         0.215399082878
   12          6.442080000000         0.003780705047
   13          3.092030000000        -0.444177973038
   14          1.578740000000        -0.438313775415
   15        656.274000000000        -0.000178085796
   16        149.232000000000        -0.001199633040
   17         19.015300000000        -0.117268535884
   18         10.737800000000         0.487794681756
   19          6.442080000000         0.008561818327
   20          3.092030000000        -1.005889394263
   21          1.578740000000        -0.992609280089
   22         15.660511893000        -0.125895787361
   23          4.925066981200         1.337089726646
   24          1.669231998200         4.159073672219
   25         15.660511893000        -0.018812684842
   26          4.925066981200         0.199802139211
   27          1.669231998200         0.621492933710
   28         15.660511893000        -0.042603373667
   29          4.925066981200         0.452473704197
   30          1.669231998200         1.407438433634
   31          0.778178981800         0.273297641967
   32          0.778178981800         0.040839034523
   33          0.778178981800         0.092484441354
 P 33
    1        656.274000000000         0.000001182555
    2        149.232000000000         0.000007966002
    3         19.015300000000         0.000778705947
    4         10.737800000000        -0.003239135004
    5          6.442080000000        -0.000056853604
    6          3.092030000000         0.006679473289
    7          1.578740000000         0.006591288476
    8        656.274000000000        -0.000009202881
    9        149.232000000000        -0.000061993041
   10         19.015300000000        -0.006060047475
   11         10.737800000000         0.025207604983
   12          6.442080000000         0.000442446264
   13          3.092030000000        -0.051981014668
   14          1.578740000000        -0.051294742585
   15        656.274000000000         0.000000569256
   16        149.232000000000         0.000003834660
   17         19.015300000000         0.000374852135
   18         10.737800000000        -0.001559249262
   19          6.442080000000        -0.000027368090
   20          3.092030000000         0.003215353415
   21          1.578740000000         0.003172903161
   22         15.660511893000        -0.000233741088
   23          4.925066981200         0.002482472318
   24          1.669231998200         0.007721834259
   25         15.660511893000         0.001819020510
   26          4.925066981200        -0.019319102633
   27          1.669231998200        -0.060092878982
   28         15.660511893000        -0.000112517885
   29          4.925066981200         0.001195008274
   30          1.669231998200         0.003717123355
   31          0.778178981800        -0.038368424198
   32          0.778178981800         0.298590852332
   33          0.778178981800        -0.018469726351
 P 30
    1        656.274000000000        -0.000008434028
    2        149.232000000000        -0.000056813844
    3         19.015300000000        -0.005553761959
    4         10.737800000000         0.023101640411
    5          6.442080000000         0.000405482174
    6          3.092030000000        -0.047638270667
    7          1.578740000000        -0.047009333055
    8        656.274000000000        -0.000001083758
    9        149.232000000000        -0.000007300484
   10         19.015300000000        -0.000713649095
   11         10.737800000000         0.002968522037
   12          6.442080000000         0.000052103779
   13          3.092030000000        -0.006121437862
   14          1.578740000000        -0.006040620434
   15         15.660511893000         0.001660942969
   16          4.925066981200        -0.017640223133
   17          1.669231998200        -0.054870653885
   18         15.660511893000         0.000213428385
   19          4.925066981200        -0.002266739079
   20          1.669231998200        -0.007050786973
   21          0.778178981800         0.276716699396
   22          0.778178981800         0.035557631650
   23          0.356088437200        -0.011236386710
   24          0.356088437200        -0.001443856842
   25          0.154932426500        -0.254193899896
   26          0.154932426500        -0.032663489699
   27          0.064666212500        -0.330271879040
   28          0.064666212500        -0.042439382390
   29          0.018667676800         1.168971022141
   30          0.018667676800         0.150210815269
 P 30
    1        656.274000000000        -0.000019849673
    2        149.232000000000        -0.000133712648
    3         19.015300000000        -0.013070902484
    4         10.737800000000         0.054370225308
    5          6.442080000000         0.000954311330
    6          3.092030000000        -0.112117731182
    7          1.578740000000        -0.110637512502
    8        656.274000000000        -0.000002550650
    9        149.232000000000        -0.000017181851
   10         19.015300000000        -0.001679589055
   11         10.737800000000         0.006986482798
   12          6.442080000000         0.000122627406
   13          3.092030000000        -0.014406940487
   14          1.578740000000        -0.014216734868
   15         15.660511893000         0.003846115660
   16          4.925066981200        -0.040848084315
   17          1.669231998200        -0.127059679429
   18         15.660511893000         0.000494219414
   19          4.925066981200        -0.005248910351
   20          1.669231998200        -0.016326955786
   21          0.778178981800         0.517402173461
   22          0.778178981800         0.066485311843
   23          0.356088437200         0.662158366327
   24          0.356088437200         0.085086239938
   25          0.154932426500        -2.584940643812
   26          0.154932426500        -0.332160538971
   27          0.064666212500         2.581638986204
   28          0.064666212500         0.331736281505
   29          0.018667676800        -0.899135934375
   30          0.018667676800        -0.115537460133
 P 30
    1        656.274000000000        -0.000067892350
    2        149.232000000000        -0.000457340834
    3         19.015300000000        -0.044706746334
    4         10.737800000000         0.185963889937
    5          6.442080000000         0.003264055761
    6          3.092030000000        -0.383479180073
    7          1.578740000000        -0.378416349782
    8        656.274000000000        -0.000008724053
    9        149.232000000000        -0.000058767530
   10         19.015300000000        -0.005744741952
   11         10.737800000000         0.023896048085
   12          6.442080000000         0.000419425693
   13          3.092030000000        -0.049276431729
   14          1.578740000000        -0.048625866524
   15         15.660511893000         0.016020920036
   16          4.925066981200        -0.170151901347
   17          1.669231998200        -0.529264625302
   18         15.660511893000         0.002058661365
   19          4.925066981200        -0.021864234060
   20          1.669231998200        -0.068009617028
   21          0.778178981800         3.925853342354
   22          0.778178981800         0.504465572718
   23          0.356088437200        -5.269380709625
   24          0.356088437200        -0.677106586961
   25          0.154932426500         3.827030229172
   26          0.154932426500         0.491766968354
   27          0.064666212500        -1.594937258501
   28          0.064666212500        -0.204946763772
   29          0.018667676800         0.342108944616
   30          0.018667676800         0.043960425830
 P 33
    1        656.274000000000         0.000071381128
    2        149.232000000000         0.000480842167
    3         19.015300000000         0.047004087935
    4         10.737800000000        -0.195519999827
    5          6.442080000000        -0.003431785504
    6          3.092030000000         0.403184990627
    7          1.578740000000         0.397861997126
    8        656.274000000000        -0.000555502407
    9        149.232000000000        -0.003742011200
   10         19.015300000000        -0.365795339227
   11         10.737800000000         1.521576267166
   12          6.442080000000         0.026706850356
   13          3.092030000000        -3.137667315673
   14          1.578740000000        -3.096242701367
   15        656.274000000000         0.000034361325
   16        149.232000000000         0.000231466979
   17         19.015300000000         0.022626747383
   18         10.737800000000        -0.094119082802
   19          6.442080000000        -0.001651987031
   20          3.092030000000         0.194084500567
   21          1.578740000000         0.191522127068
   22         15.660511893000         0.017075796285
   23          4.925066981200        -0.181355327806
   24          1.669231998200        -0.564113353176
   25         15.660511893000        -0.132887307654
   26          4.925066981200         1.411343918570
   27          1.669231998200         4.390044450418
   28         15.660511893000         0.008219917583
   29          4.925066981200        -0.087300517233
   30          1.669231998200        -0.271551920234
   31          0.778178981800        -0.037118447179
   32          0.778178981800         0.288863279212
   33          0.778178981800        -0.017868014559
 end
  // -----------------------------------------------
  // The basis set
  // -----------------------------------------------
  BAS[ATNO] = new BFNGauss[NSH];
  // Basis function   1 L = s
  InitBFNGauss(BAS[ATNO][  0]);
  BAS[ATNO][  0].l  = 0;
  BAS[ATNO][  0].ng = 18;
  BAS[ATNO][  0].a[  0] =     16788.400000000001;     BAS[ATNO][  0].d[  0] =         0.000045562297;
  BAS[ATNO][  0].a[  1] =      2526.640000000000;     BAS[ATNO][  0].d[  1] =         0.000336716481;
  BAS[ATNO][  0].a[  2] =       571.984000000000;     BAS[ATNO][  0].d[  2] =         0.001385760630;
  BAS[ATNO][  0].a[  3] =       150.434000000000;     BAS[ATNO][  0].d[  3] =         0.002954881764;
  BAS[ATNO][  0].a[  4] =        29.540500000000;     BAS[ATNO][  0].d[  4] =        -0.059108748100;
  BAS[ATNO][  0].a[  5] =        18.457100000000;     BAS[ATNO][  0].d[  5] =         0.377940379520;
  BAS[ATNO][  0].a[  6] =        11.528600000000;     BAS[ATNO][  0].d[  6] =        -0.391563506832;
  BAS[ATNO][  0].a[  7] =         7.082890000000;     BAS[ATNO][  0].d[  7] =        -0.601627929661;
  BAS[ATNO][  0].a[  8] =         2.504050000000;     BAS[ATNO][  0].d[  8] =         0.795394384830;
  BAS[ATNO][  0].a[  9] =         1.354014478100;     BAS[ATNO][  0].d[  9] =         0.663650375252;
  BAS[ATNO][  0].a[ 10] =        25.058617933000;     BAS[ATNO][  0].d[ 10] =         0.010501364389;
  BAS[ATNO][  0].a[ 11] =        15.621979372000;     BAS[ATNO][  0].d[ 11] =        -0.036640394467;
  BAS[ATNO][  0].a[ 12] =         3.353632516200;     BAS[ATNO][  0].d[ 12] =         0.135873853985;
  BAS[ATNO][  0].a[ 13] =         0.674304727000;     BAS[ATNO][  0].d[ 13] =        -0.206545688995;
  BAS[ATNO][  0].a[ 14] =         0.327271369500;     BAS[ATNO][  0].d[ 14] =         0.157431353966;
  BAS[ATNO][  0].a[ 15] =         0.157493641200;     BAS[ATNO][  0].d[ 15] =        -0.093366065660;
  BAS[ATNO][  0].a[ 16] =         0.074377727800;     BAS[ATNO][  0].d[ 16] =         0.042435967414;
  BAS[ATNO][  0].a[ 17] =         0.035555048600;     BAS[ATNO][  0].d[ 17] =        -0.011417742061;

FINAL SINGLE POINT ENERGY      -258.065099010801

DIPOLE MOMENT
-------------
                                X             Y             Z
Electronic contribution:     -0.00000       0.00000       0.00000
Nuclear contribution   :      0.00000       0.00000       0.00000
                        -----------------------------------------
Total Dipole Moment    :     -0.00000       0.00000       0.00000
                        -----------------------------------------
Magnitude (a.u.)       :      0.00000
Magnitude (Debye)      :      0.00000

Rotational constants in cm-1:     0.000000     0.000000     0.000000
Rotational constants in MHz :     0.000000     0.000000     0.000000

                             ****ORCA TERMINATED NORMALLY****
TOTAL RUN TIME: 0 days 0 hours 0 minutes 1 seconds 110 msec
