                         Program Version 4.2.0 -  RELEASE  -
|  1> #
|  2> # 53_I CCSD(T)/Def2-QZVPPD
|  3> #
|  4> ! CCSD(T) Def2-QZVPPD tightscf
|  5>
|  6> *xyz 0 2
|  7>  I 0.0 0.0 0.0
|  8> *
|  9>
| 10> %maxcore 5000
| 11>
| 12> %pal
| 13> nprocs 24
| 14> end
| 15>
| 16>
| 17>                          ****END OF INPUT****

CARTESIAN COORDINATES (ANGSTROEM)
---------------------------------
  I      0.000000    0.000000    0.000000

 Total Charge           Charge          ....    0
 Multiplicity           Mult            ....    2
 Number of Electrons    NEL             ....   25
 Basis Dimension        Dim             ....   91

ORBITAL ENERGIES
----------------
                 SPIN UP ORBITALS
  NO   OCC          E(Eh)            E(eV)
   0   1.0000      -7.763138      -211.2457
   1   1.0000      -5.625526      -153.0784
   2   1.0000      -5.603516      -152.4794
   3   1.0000      -5.603516      -152.4794
   4   1.0000      -2.315941       -63.0200
   5   1.0000      -2.309928       -62.8563
   6   1.0000      -2.309928       -62.8563
   7   1.0000      -2.292242       -62.3751
   8   1.0000      -2.292242       -62.3751
   9   1.0000      -0.923054       -25.1176
  10   1.0000      -0.460392       -12.5279
  11   1.0000      -0.399999       -10.8845
  12   1.0000      -0.399999       -10.8845
  13   0.0000       0.045487         1.2378
  14   0.0000       0.049419         1.3447
  15   0.0000       0.049419         1.3447
  16   0.0000       0.055857         1.5199
  17   0.0000       0.138923         3.7803

                 SPIN DOWN ORBITALS
  NO   OCC          E(Eh)            E(eV)
   0   1.0000      -7.755444      -211.0363
   1   1.0000      -5.604469      -152.5054
   2   1.0000      -5.602483      -152.4513
   3   1.0000      -5.602483      -152.4513
   4   1.0000      -2.304050       -62.6964
   5   1.0000      -2.300952       -62.6121
   6   1.0000      -2.300952       -62.6121
   7   1.0000      -2.292034       -62.3694
   8   1.0000      -2.292034       -62.3694
   9   1.0000      -0.833179       -22.6720
  10   1.0000      -0.382978       -10.4214
  11   1.0000      -0.382978       -10.4214
  12   0.0000      -0.051886        -1.4119
  13   0.0000       0.049671         1.3516
  14   0.0000       0.049671         1.3516
  15   0.0000       0.052010         1.4153
  16   0.0000       0.058577         1.5940

E(0)                                       ...   -296.659738787
E(0)                                       ...   -296.659738787
E(CORR)                                    ...     -0.594693502
E(TOT)                                     ...   -297.254432288
E(CCSD(T))                                 ...   -297.266839354

MULLIKEN ATOMIC CHARGES AND SPIN DENSITIES
------------------------------------------
   0 I :   -0.000000    1.000000
Sum of atomic charges       :   -0.0000000

LOEWDIN ATOMIC CHARGES AND SPIN DENSITIES
-----------------------------------------
   0 I :   -0.000000    1.000000

FINAL SINGLE POINT ENERGY      -297.266839354435

DIPOLE MOMENT
-------------
                                X             Y             Z
Electronic contribution:      0.00000       0.00000      -0.00000
Nuclear contribution   :      0.00000       0.00000       0.00000
                        -----------------------------------------
Total Dipole Moment    :      0.00000       0.00000      -0.00000
                        -----------------------------------------
Magnitude (a.u.)       :      0.00000
Magnitude (Debye)      :      0.00000

Rotational constants in cm-1:     0.000000     0.000000     0.000000
Rotational constants in MHz :     0.000000     0.000000     0.000000

                             ****ORCA TERMINATED NORMALLY****
TOTAL RUN TIME: 0 days 0 hours 0 minutes 27 seconds 142 msec
