                         Program Version 4.2.0 -  RELEASE  -
|  1> # input to generate an atomic fitting density for Xe
|  2> # this file is use internally by ORCA
|  3> #
|  4> # atomic ground state (S=1): 1s2 2s2 2p6 3s2 3p6 4s2 3d10 4p6 5s2 4d10 5p6
|  5> #
|  6> ! RHF AllowRHF def2-SVP def2/J  NoMulliken NoLoewdin NoMayer NoPrintMOs
|  7>
|  8> %output print[p_atomdensfit] 2 end
|  9>
| 10> %scf
| 11>   guess hcore
| 12>   maxiter 1000
| 13>   maxdisk 500000
| 14>   SCFMode Conventional
| 15>   lshift 1.000000
| 16>   hftyp rohf
| 17>   rohf_case sahf
| 18>   rohf_numop   2
| 19>   rohf_norb[1] 3
| 20>   rohf_nel[1]  6
| 21> end
| 22>
| 23> %basis
| 24>   NewECP 54
| 25>     N_core 28
| 26>     lmax f
| 27>     s 7
| 28>       1      40.0051840000     49.9979620000  2
| 29>       2      17.8122140000    281.0133030000  2
| 30>       3       9.3041500000     61.5382550000  2
| 31>       4      20.8815570000     23.0892950000  2
| 32>       5      20.7834430000     30.0744750000  2
| 33>       6       5.2533890000      0.2882270000  2
| 34>       7       5.3611880000      0.3869240000  2
| 35>     p 8
| 36>       1      15.7017720000     67.4391420000  2
| 37>       2      15.2586080000    134.8747110000  2
| 38>       3       9.2921840000     14.6633000000  2
| 39>       4       8.5590030000     29.3547300000  2
| 40>       5      20.8815570000     23.0892950000  2
| 41>       6      20.7834430000     30.0744750000  2
| 42>       7       5.2533890000      0.2882270000  2
| 43>       8       5.3611880000      0.3869240000  2
| 44>     d 10
| 45>       1      15.1856000000     35.4369080000  2
| 46>       2      14.2845000000     53.1957720000  2
| 47>       3       7.1218890000      9.0462320000  2
| 48>       4       6.9919630000     13.2236810000  2
| 49>       5       0.6239460000      0.0848530000  2
| 50>       6       0.6472840000      0.0441550000  2
| 51>       7      20.8815570000     23.0892950000  2
| 52>       8      20.7834430000     30.0744750000  2
| 53>       9       5.2533890000      0.2882270000  2
| 54>      10       5.3611880000      0.3869240000  2
| 55>     f 4
| 56>       1      20.8815570000    -23.0892950000  2
| 57>       2      20.7834430000    -30.0744750000  2
| 58>       3       5.2533890000     -0.2882270000  2
| 59>       4       5.3611880000     -0.3869240000  2
| 60>   end
| 61>   NewGTO 54
| 62>     s 9
| 63>      1   18774.3000000000      0.0002098474
| 64>      2    2824.8100000000      0.0015460814
| 65>      3     640.0880000000      0.0064713228
| 66>      4     172.6160000000      0.0138653569
| 67>      5      29.5169000000     -0.1455075542
| 68>      6      18.4448000000      1.1542624130
| 69>      7      11.5238000000     -1.5825763401
| 70>      8       6.6189000000     -1.4770292813
| 71>      9       2.9955200000      1.8407040442
| 72>     s 1
| 73>      1       1.6532586536      1.0000000000
| 74>     s 3
| 75>      1      27.0521718350      0.2698370333
| 76>      2      20.9406224150     -0.5800955323
| 77>      3       6.0024591071      1.2407647072
| 78>     s 1
| 79>      1       0.8755388927      1.0000000000
| 80>     s 1
| 81>      1       0.4103361665      1.0000000000
| 82>     s 1
| 83>      1       0.1949358578      1.0000000000
| 84>     s 1
| 85>      1       0.0901710930      1.0000000000
| 86>     p 7
| 87>      1     613.3310000000      0.0001532348
| 88>      2     141.7100000000      0.0009471688
| 89>      3      20.3106000000      0.0610984931
| 90>      4      11.0331000000     -0.2809171554
| 91>      5       6.8951300000      0.0108219307
| 92>      6       3.2416600000      0.5849538901
| 93>      7       1.6653500000      0.5572328251
| 94>     p 3
| 95>      1      18.3889084130     -0.0270339421
| 96>      2       6.1139045431      0.2786237330
| 97>      3       1.8729815691      0.8043463625
| 98>     p 1
| 99>      1       0.8200466599      1.0000000000
|100>     p 1
|101>      1       0.3955264825      1.0000000000
|102>     p 1
|103>      1       0.1744550981      1.0000000000
|104>     p 1
|105>      1       0.0733899927      1.0000000000
|106>     s 1
|107>      1       0.0422873486      1.0000000000
|108>     p 1
|109>      1       0.0199940044      1.0000000000
|110>   end
|111>   NewAuxGTO 54
|112>     S 1
|113>      1 1310.72 1.0
|114>     S 1
|115>      1  655.36 1.0
|116>     S 1
|117>      1  327.68 1.0
|118>     S 1
|119>      1  163.84 1.0
|120>     S 1
|121>      1   81.82 1.0
|122>     S 1
|123>      1   40.96 1.0
|124>     S 1
|125>      1   20.48 1.0
|126>     S 1
|127>      1   10.24 1.0
|128>     S 1
|129>      1    5.12 1.0
|130>     S 1
|131>      1    2.56 1.0
|132>     S 1
|133>      1    1.28 1.0
|134>     S 1
|135>      1    0.64 1.0
|136>     S 1
|137>      1    0.32 1.0
|138>     S 1
|139>      1    0.16 1.0
|140>     S 1
|141>      1    0.08 1.0
|142>     S 1
|143>      1    0.04 1.0
|144>     S 1
|145>      1    0.02 1.0
|146>     S 1
|147>      1    0.01 1.0
|148>   end
|149> end
|150>
|151> * xyz 0 1
|152> 54  0.0 0.0 0.0
|153> *
|154>
|155>
|156>                          ****END OF INPUT****

CARTESIAN COORDINATES (ANGSTROEM)
---------------------------------
  Xe     0.000000    0.000000    0.000000

 Total Charge           Charge          ....    0
 Multiplicity           Mult            ....    1
 Number of Electrons    NEL             ....   26
 Basis Dimension        Dim             ....   29

ORBITAL ENERGIES
----------------

  NO   OCC          E(Eh)            E(eV)
   0   2.0000     -13.737665      -373.8209
   1   2.0000     -11.134263      -302.9787
   2   2.0000     -11.131729      -302.9097
   3   2.0000     -11.131357      -302.8996
   4   2.0000      -3.872675      -105.3808
   5   2.0000      -2.867061       -78.0167
   6   2.0000      -2.861755       -77.8723
   7   2.0000      -2.435776       -66.2808
   8   2.0000      -0.589026       -16.0282
   9   2.0000      -0.569881       -15.5072
  10   2.0000      -1.023217       -27.8431
  11   2.0000      -0.926925       -25.2229
  12   2.0000      -0.082581        -2.2471
  13   0.0000      -0.011993        -0.3264
  14   0.0000       0.008927         0.2429
  15   0.0000       0.008927         0.2429
  16   0.0000       0.251018         6.8306
  17   0.0000       0.251018         6.8306

CleanUpVectors: The p-vectors have cracked symmetry
CleanUpVectors: The p-vectors have cracked symmetry
CleanUpVectors: The p-vectors have cracked symmetry
CleanUpVectors: The p-vectors have cracked symmetry
CleanUpVectors: The p-vectors have cracked symmetry
CleanUpVectors: The p-vectors have cracked symmetry
CleanUpVectors: The p-vectors have cracked symmetry
CleanUpVectors: The p-vectors have cracked symmetry
CleanUpVectors: The p-vectors have cracked symmetry
CleanUpVectors: The p-vectors have cracked symmetry
CleanUpVectors: The p-vectors have cracked symmetry
CleanUpVectors: The p-vectors have cracked symmetry
CleanUpVectors: The p-vectors have cracked symmetry
CleanUpVectors: The p-vectors have cracked symmetry
CleanUpVectors: The p-vectors have cracked symmetry
CleanUpVectors: The p-vectors have cracked symmetry
CleanUpVectors: The p-vectors have cracked symmetry
CleanUpVectors: The p-vectors have cracked symmetry
CleanUpVectors: The p-vectors have cracked symmetry
CleanUpVectors: The p-vectors have cracked symmetry
--------------------------
ATOM BASIS FOR ELEMENT Xe
--------------------------
 NewGTO Xe
 S 18
    1      18774.299999999999         0.000080961872
    2       2824.810000000000         0.000596498430
    3        640.088000000000         0.002496720992
    4        172.616000000000         0.005349436075
    5         29.516900000000        -0.056138717902
    6         18.444800000000         0.445329538695
    7         11.523800000000        -0.610578654861
    8          6.618900000000        -0.569857218837
    9          2.995520000000         0.710167699862
   10          1.653258653600         0.921742863718
   11         27.052171835000         0.022186738588
   12         20.940622415000        -0.047697040595
   13          6.002459107100         0.102019066366
   14          0.875538892700        -0.238274698643
   15          0.410336166500         0.177532390332
   16          0.194935857800        -0.103848680090
   17          0.090171093000         0.044513250006
   18          0.042287348600        -0.012336802735
 P 30
    1        613.331000000000        -0.000143449823
    2        141.710000000000        -0.000886686291
    3         20.310600000000        -0.057196981428
    4         11.033100000000         0.262978880576
    5          6.895130000000        -0.010130884378
    6          3.241660000000        -0.547601014213
    7          1.665350000000        -0.521650108396
    8        613.331000000000         0.000056304616
    9        141.710000000000         0.000348027831
   10         20.310600000000         0.022450038523
   11         11.033100000000        -0.103220237368
   12          6.895130000000         0.003976411672
   13          3.241660000000         0.214935536064
   14          1.665350000000         0.204749704212
   15         18.388908413000         0.002096702815
   16          6.113904543100        -0.021609544152
   17          1.872981569100        -0.062383624132
   18         18.388908413000        -0.000822964041
   19          6.113904543100         0.008481830449
   20          1.872981569100         0.024485816035
   21          0.820046659900         0.170598914213
   22          0.820046659900        -0.066960739894
   23          0.395526482500        -0.132457348309
   24          0.395526482500         0.051990026362
   25          0.174455098100         0.065370375009
   26          0.174455098100        -0.025658127415
   27          0.073389992700        -0.023791577238
   28          0.073389992700         0.009338286955
   29          0.019994004400         0.004863912506
   30          0.019994004400        -0.001909104649
 S 18
    1      18774.299999999999         0.000068475679
    2       2824.810000000000         0.000504504577
    3        640.088000000000         0.002111668874
    4        172.616000000000         0.004524429317
    5         29.516900000000        -0.047480829299
    6         18.444800000000         0.376649424828
    7         11.523800000000        -0.516413305616
    8          6.618900000000        -0.481972056779
    9          2.995520000000         0.600643416713
   10          1.653258653600         1.739578440995
   11         27.052171835000         0.057203020419
   12         20.940622415000        -0.122975027458
   13          6.002459107100         0.263030941354
   14          0.875538892700        -1.834407317613
   15          0.410336166500        -0.283467586941
   16          0.194935857800        -0.210371088769
   17          0.090171093000         0.050642925539
   18          0.042287348600        -0.020606282777
 P 30
    1        613.331000000000        -0.000102672637
    2        141.710000000000        -0.000634635989
    3         20.310600000000        -0.040938112187
    4         11.033100000000         0.188224249723
    5          6.895130000000        -0.007251069390
    6          3.241660000000        -0.391939420466
    7          1.665350000000        -0.373365344228
    8        613.331000000000         0.000040299411
    9        141.710000000000         0.000249097103
   10         20.310600000000         0.016068368866
   11         11.033100000000        -0.073878752889
   12          6.895130000000         0.002846073045
   13          3.241660000000         0.153837752759
   14          1.665350000000         0.146547355318
   15         18.388908413000         0.008640223055
   16          6.113904543100        -0.089049950337
   17          1.872981569100        -0.257074309009
   18         18.388908413000        -0.003391321282
   19          6.113904543100         0.034952453180
   20          1.872981569100         0.100902669966
   21          0.820046659900         1.221962750275
   22          0.820046659900        -0.479625150320
   23          0.395526482500         0.096519599096
   24          0.395526482500        -0.037884319481
   25          0.174455098100         0.143499614622
   26          0.174455098100        -0.056324158996
   27          0.073389992700        -0.048573949830
   28          0.073389992700         0.019065464953
   29          0.019994004400         0.010287443102
   30          0.019994004400        -0.004037861582
 S 18
    1      18774.299999999999        -0.000015361996
    2       2824.810000000000        -0.000113181751
    3        640.088000000000        -0.000473736795
    4        172.616000000000        -0.001015021185
    5         29.516900000000         0.010651961660
    6         18.444800000000        -0.084498423720
    7         11.523800000000         0.115853383641
    8          6.618900000000         0.108126752334
    9          2.995520000000        -0.134749766187
   10          1.653258653600        -0.626593332623
   11         27.052171835000        -0.013860291337
   12         20.940622415000         0.029796848056
   13          6.002459107100        -0.063732394743
   14          0.875538892700         1.077678064147
   15          0.410336166500        -0.270362931748
   16          0.194935857800         0.472246186136
   17          0.090171093000        -2.754368311621
   18          0.042287348600         2.636301355241
 S 18
    1      18774.299999999999         0.000028732556
    2       2824.810000000000         0.000211691310
    3        640.088000000000         0.000886061238
    4        172.616000000000         0.001898461208
    5         29.516900000000        -0.019923067906
    6         18.444800000000         0.158042986575
    7         11.523800000000        -0.216688240434
    8          6.618900000000        -0.202236611230
    9          2.995520000000         0.252031393615
   10          1.653258653600         0.696856167858
   11         27.052171835000         0.038216496777
   12         20.940622415000        -0.082157807509
   13          6.002459107100         0.175727104076
   14          0.875538892700        -0.379574728467
   15          0.410336166500        -4.060459628303
   16          0.194935857800         8.950647840565
   17          0.090171093000        -8.261659279372
   18          0.042287348600         3.087482528645
 S 18
    1      18774.299999999999        -0.000071841587
    2       2824.810000000000        -0.000529303395
    3        640.088000000000        -0.002215467521
    4        172.616000000000        -0.004746826704
    5         29.516900000000         0.049814739632
    6         18.444800000000        -0.395163549320
    7         11.523800000000         0.541797494729
    8          6.618900000000         0.505663293436
    9          2.995520000000        -0.630167919496
   10          1.653258653600        -5.055027406228
   11         27.052171835000        -0.041195477131
   12         20.940622415000         0.088562018127
   13          6.002459107100        -0.189425052206
   14          0.875538892700        12.935791091318
   15          0.410336166500       -15.621289325603
   16          0.194935857800        12.204044198582
   17          0.090171093000        -6.078084393648
   18          0.042287348600         1.636868452971
 S 18
    1      18774.299999999999        -0.000236354636
    2       2824.810000000000        -0.001741377337
    3        640.088000000000        -0.007288759093
    4        172.616000000000        -0.015616783354
    5         29.516900000000         0.163887591690
    6         18.444800000000        -1.300065059058
    7         11.523800000000         1.782482198054
    8          6.618900000000         1.663602780613
    9          2.995520000000        -2.073215747978
   10          1.653258653600        11.124912886745
   11         27.052171835000        -1.275153555487
   12         20.940622415000         2.741324537586
   13          6.002459107100        -5.863411365593
   14          0.875538892700       -12.495659581741
   15          0.410336166500         8.703300691085
   16          0.194935857800        -5.122461707244
   17          0.090171093000         2.286117149467
   18          0.042287348600        -0.609365222546
 P 30
    1        613.331000000000        -0.000679909053
    2        141.710000000000        -0.004202626567
    3         20.310600000000        -0.271096503930
    4         11.033100000000         1.246440867178
    5          6.895130000000        -0.048017347559
    6          3.241660000000        -2.595464249940
    7          1.665350000000        -2.472464754774
    8        613.331000000000         0.000266875236
    9        141.710000000000         0.001649598507
   10         20.310600000000         0.106409737074
   11         11.033100000000        -0.489248083367
   12          6.895130000000         0.018847581045
   13          3.241660000000         1.018761453646
   14          1.665350000000         0.970482173939
   15         18.388908413000        -0.112176492942
   16          6.113904543100         1.156140421647
   17          1.872981569100         3.337609946855
   18         18.388908413000         0.044031077298
   19          6.113904543100        -0.453803706448
   20          1.872981569100        -1.310065573526
   21          0.820046659900         0.847884467710
   22          0.820046659900        -0.332808287715
   23          0.395526482500        -0.748942641221
   24          0.395526482500         0.293972029815
   25          0.174455098100         0.406003144892
   26          0.174455098100        -0.159362762976
   27          0.073389992700        -0.151472067810
   28          0.073389992700         0.059455222314
   29          0.019994004400         0.031011932692
   30          0.019994004400        -0.012172682259
 P 15
    1        613.331000000000        -0.000056937737
    2        141.710000000000        -0.000351941259
    3         20.310600000000        -0.022702479808
    4         11.033100000000         0.104380905725
    5          6.895130000000        -0.004021124757
    6          3.241660000000        -0.217352396186
    7          1.665350000000        -0.207052028919
    8         18.388908413000         0.006034264653
    9          6.113904543100        -0.062191793462
   10          1.872981569100        -0.179538700133
   11          0.820046659900         1.078516521607
   12          0.395526482500        -0.010726998836
   13          0.174455098100        -0.905741883756
   14          0.073389992700        -0.361705296436
   15          0.019994004400         0.161610725994
 P 30
    1        613.331000000000        -0.000013241865
    2        141.710000000000        -0.000081850085
    3         20.310600000000        -0.005279858079
    4         11.033100000000         0.024275602185
    5          6.895130000000        -0.000935182774
    6          3.241660000000        -0.050549094847
    7          1.665350000000        -0.048153564588
    8        613.331000000000         0.000005197481
    9        141.710000000000         0.000032126464
   10         20.310600000000         0.002072364029
   11         11.033100000000        -0.009528264585
   12          6.895130000000         0.000367062734
   13          3.241660000000         0.019840708649
   14          1.665350000000         0.018900454069
   15         18.388908413000         0.001449815139
   16          6.113904543100        -0.014942434393
   17          1.872981569100        -0.043136643895
   18         18.388908413000        -0.000569057861
   19          6.113904543100         0.005864961345
   20          1.872981569100         0.016931293947
   21          0.820046659900         0.275850871904
   22          0.820046659900        -0.108272498183
   23          0.395526482500        -0.038859526796
   24          0.395526482500         0.015252509500
   25          0.174455098100        -0.216919271392
   26          0.174455098100         0.085141624732
   27          0.073389992700        -0.297487628684
   28          0.073389992700         0.116765006084
   29          0.019994004400         1.080803511988
   30          0.019994004400        -0.424219417833
 P 30
    1        613.331000000000        -0.000012442477
    2        141.710000000000        -0.000076908941
    3         20.310600000000        -0.004961122444
    4         11.033100000000         0.022810127286
    5          6.895130000000        -0.000878727454
    6          3.241660000000        -0.047497535957
    7          1.665350000000        -0.045246619597
    8        613.331000000000        -0.000031700240
    9        141.710000000000        -0.000195944254
   10         20.310600000000        -0.012639667452
   11         11.033100000000         0.058114353491
   12          6.895130000000        -0.002238772158
   13          3.241660000000        -0.121011538426
   14          1.665350000000        -0.115276780902
   15         18.388908413000         0.001364767667
   16          6.113904543100        -0.014065897630
   17          1.872981569100        -0.040606209212
   18         18.388908413000         0.003477077951
   19          6.113904543100        -0.035836299235
   20          1.872981569100        -0.103454205514
   21          0.820046659900         0.201777812555
   22          0.820046659900         0.514078110059
   23          0.395526482500         0.245004057762
   24          0.395526482500         0.624207495241
   25          0.174455098100        -0.966721384996
   26          0.174455098100        -2.462958123365
   27          0.073389992700         0.935418602355
   28          0.073389992700         2.383206662412
   29          0.019994004400        -0.308725448373
   30          0.019994004400        -0.786553253876
 P 30
    1        613.331000000000        -0.000108182145
    2        141.710000000000        -0.000668691138
    3         20.310600000000        -0.043134888826
    4         11.033100000000         0.198324535562
    5          6.895130000000        -0.007640168422
    6          3.241660000000        -0.412971249173
    7          1.665350000000        -0.393400470971
    8        613.331000000000         0.000042459583
    9        141.710000000000         0.000262449473
   10         20.310600000000         0.016929682746
   11         11.033100000000        -0.077838880759
   12          6.895130000000         0.002998631294
   13          3.241660000000         0.162083928395
   14          1.665350000000         0.154402743279
   15         18.388908413000         0.013649673074
   16          6.113904543100        -0.140679552102
   17          1.872981569100        -0.406121491493
   18         18.388908413000        -0.005357255832
   19          6.113904543100         0.055214241894
   20          1.872981569100         0.159395519353
   21          0.820046659900         3.948021874331
   22          0.820046659900        -1.549528922267
   23          0.395526482500        -5.404881328483
   24          0.395526482500         2.121320551379
   25          0.174455098100         3.803123004123
   26          0.174455098100        -1.492658672443
   27          0.073389992700        -1.525730581652
   28          0.073389992700         0.598822331515
   29          0.019994004400         0.304017212765
   30          0.019994004400        -0.119321391576
 P 15
    1        613.331000000000        -0.000730422818
    2        141.710000000000        -0.004514860226
    3         20.310600000000        -0.291237587589
    4         11.033100000000         1.339045048412
    5          6.895130000000        -0.051584790888
    6          3.241660000000        -2.788293968635
    7          1.665350000000        -2.656156240086
    8         18.388908413000        -0.120507393490
    9          6.113904543100         1.242002357783
   10          1.872981569100         3.585480920605
   11          0.820046659900         0.911129015982
   12          0.395526482500        -0.804861475329
   13          0.174455098100         0.436350824552
   14          0.073389992700        -0.162804530995
   15          0.019994004400         0.033338087343
 end
  // -----------------------------------------------
  // The basis set
  // -----------------------------------------------
  BAS[ATNO] = new BFNGauss[NSH];
  // Basis function   1 L = s
  InitBFNGauss(BAS[ATNO][  0]);
  BAS[ATNO][  0].l  = 0;
  BAS[ATNO][  0].ng = 18;
  BAS[ATNO][  0].a[  0] =     18774.299999999999;     BAS[ATNO][  0].d[  0] =         0.000080961872;
  BAS[ATNO][  0].a[  1] =      2824.810000000000;     BAS[ATNO][  0].d[  1] =         0.000596498430;
  BAS[ATNO][  0].a[  2] =       640.088000000000;     BAS[ATNO][  0].d[  2] =         0.002496720992;
  BAS[ATNO][  0].a[  3] =       172.616000000000;     BAS[ATNO][  0].d[  3] =         0.005349436075;
  BAS[ATNO][  0].a[  4] =        29.516900000000;     BAS[ATNO][  0].d[  4] =        -0.056138717902;
  BAS[ATNO][  0].a[  5] =        18.444800000000;     BAS[ATNO][  0].d[  5] =         0.445329538695;
  BAS[ATNO][  0].a[  6] =        11.523800000000;     BAS[ATNO][  0].d[  6] =        -0.610578654861;
  BAS[ATNO][  0].a[  7] =         6.618900000000;     BAS[ATNO][  0].d[  7] =        -0.569857218837;
  BAS[ATNO][  0].a[  8] =         2.995520000000;     BAS[ATNO][  0].d[  8] =         0.710167699862;
  BAS[ATNO][  0].a[  9] =         1.653258653600;     BAS[ATNO][  0].d[  9] =         0.921742863718;
  BAS[ATNO][  0].a[ 10] =        27.052171835000;     BAS[ATNO][  0].d[ 10] =         0.022186738588;
  BAS[ATNO][  0].a[ 11] =        20.940622415000;     BAS[ATNO][  0].d[ 11] =        -0.047697040595;
  BAS[ATNO][  0].a[ 12] =         6.002459107100;     BAS[ATNO][  0].d[ 12] =         0.102019066366;
  BAS[ATNO][  0].a[ 13] =         0.875538892700;     BAS[ATNO][  0].d[ 13] =        -0.238274698643;
  BAS[ATNO][  0].a[ 14] =         0.410336166500;     BAS[ATNO][  0].d[ 14] =         0.177532390332;
  BAS[ATNO][  0].a[ 15] =         0.194935857800;     BAS[ATNO][  0].d[ 15] =        -0.103848680090;
  BAS[ATNO][  0].a[ 16] =         0.090171093000;     BAS[ATNO][  0].d[ 16] =         0.044513250006;
  BAS[ATNO][  0].a[ 17] =         0.042287348600;     BAS[ATNO][  0].d[ 17] =        -0.012336802735;

FINAL SINGLE POINT ENERGY      -283.534103790660

DIPOLE MOMENT
-------------
                                X             Y             Z
Electronic contribution:     -0.00000       0.00000       0.00000
Nuclear contribution   :      0.00000       0.00000       0.00000
                        -----------------------------------------
Total Dipole Moment    :     -0.00000       0.00000       0.00000
                        -----------------------------------------
Magnitude (a.u.)       :      0.00000
Magnitude (Debye)      :      0.00000

Rotational constants in cm-1:     0.000000     0.000000     0.000000
Rotational constants in MHz :     0.000000     0.000000     0.000000

                             ****ORCA TERMINATED NORMALLY****
TOTAL RUN TIME: 0 days 0 hours 0 minutes 1 seconds 40 msec
