                         Program Version 4.2.0 -  RELEASE  -
|  1> #
|  2> # 54_Xe CCSD(T)/Def2-QZVPPD
|  3> #
|  4> ! CCSD(T) Def2-QZVPPD tightscf
|  5>
|  6> *xyz 0 1
|  7>  Xe 0.0 0.0 0.0
|  8> *
|  9>
| 10> %maxcore 5000
| 11>
| 12> %pal
| 13> nprocs 24
| 14> end
| 15>
| 16>
| 17>                          ****END OF INPUT****

CARTESIAN COORDINATES (ANGSTROEM)
---------------------------------
  Xe     0.000000    0.000000    0.000000

 Total Charge           Charge          ....    0
 Multiplicity           Mult            ....    1
 Number of Electrons    NEL             ....   26
 Basis Dimension        Dim             ....   91

ORBITAL ENERGIES
----------------

  NO   OCC          E(Eh)            E(eV)
   0   2.0000      -8.399997      -228.5755
   1   2.0000      -6.133665      -166.9055
   2   2.0000      -6.133665      -166.9055
   3   2.0000      -6.133665      -166.9055
   4   2.0000      -2.663999       -72.4911
   5   2.0000      -2.663999       -72.4911
   6   2.0000      -2.663999       -72.4911
   7   2.0000      -2.663999       -72.4911
   8   2.0000      -2.663999       -72.4911
   9   2.0000      -1.009636       -27.4736
  10   2.0000      -0.456240       -12.4149
  11   2.0000      -0.456240       -12.4149
  12   2.0000      -0.456240       -12.4149
  13   0.0000       0.051801         1.4096
  14   0.0000       0.051801         1.4096
  15   0.0000       0.051801         1.4096
  16   0.0000       0.069856         1.9009
  17   0.0000       0.171451         4.6654

E(0)                                       ...   -328.299136104
E(0)                                       ...   -328.299136104
E(CORR)                                    ...     -0.652352326
E(TOT)                                     ...   -328.951488430
E(CCSD(T))                                 ...   -328.965130452

MULLIKEN ATOMIC CHARGES
-----------------------
   0 Xe:    0.000000
Sum of atomic charges:    0.0000000

LOEWDIN ATOMIC CHARGES
----------------------
   0 Xe:    0.000000

FINAL SINGLE POINT ENERGY      -328.965130452076

DIPOLE MOMENT
-------------
                                X             Y             Z
Electronic contribution:     -0.00000      -0.00000       0.00000
Nuclear contribution   :      0.00000       0.00000       0.00000
                        -----------------------------------------
Total Dipole Moment    :     -0.00000      -0.00000       0.00000
                        -----------------------------------------
Magnitude (a.u.)       :      0.00000
Magnitude (Debye)      :      0.00000

Rotational constants in cm-1:     0.000000     0.000000     0.000000
Rotational constants in MHz :     0.000000     0.000000     0.000000

                             ****ORCA TERMINATED NORMALLY****
TOTAL RUN TIME: 0 days 0 hours 0 minutes 13 seconds 877 msec
