                         Program Version 4.2.0 -  RELEASE  -
|  1> # input to generate an atomic fitting density for Cs
|  2> # this file is use internally by ORCA
|  3> #
|  4> # atomic ground state (S=2): 1s2 2s2 2p6 3s2 3p6 4s2 3d10 4p6 5s2 4d10 5p6 6s1
|  5> #
|  6> ! RHF AllowRHF def2-SVP def2/J  NoMulliken NoLoewdin NoMayer NoPrintMOs
|  7>
|  8> %output print[p_atomdensfit] 2 end
|  9>
| 10> %scf
| 11>   guess hcore
| 12>   maxiter 1000
| 13>   maxdisk 500000
| 14>   SCFMode Conventional
| 15>   lshift 1.000000
| 16>   hftyp rohf
| 17>   rohf_case sahf
| 18>   rohf_numop   2
| 19>   rohf_norb[1] 1
| 20>   rohf_nel[1]  1
| 21> end
| 22>
| 23> %basis
| 24>   NewECP 55
| 25>     N_core 46
| 26>     lmax f
| 27>     s 3
| 28>       1       4.0797500000     84.5477300000  2
| 29>       2       2.4174060000     16.6541730000  2
| 30>       3       3.1232690000     28.8843090000  2
| 31>     p 3
| 32>       1       5.5140800000    157.0490590000  2
| 33>       2       2.1603160000     26.4233070000  2
| 34>       3       3.1232690000     28.8843090000  2
| 35>     d 3
| 36>       1       1.8074100000     13.1727530000  2
| 37>       2       0.8581820000      3.3428330000  2
| 38>       3       3.1232690000     28.8843090000  2
| 39>     f 1
| 40>       1       3.1232690000    -28.8843090000  2
| 41>   end
| 42>   NewGTO 55
| 43>     s 3
| 44>      1       5.8684829520      0.2526260288
| 45>      2       4.3741038860     -0.6729405242
| 46>      3       1.7951201473      1.3689082005
| 47>     s 1
| 48>      1       0.3781694112      1.0000000000
| 49>     s 1
| 50>      1       0.1662469313      1.0000000000
| 51>     s 1
| 52>      1       0.0277631761      1.0000000000
| 53>     s 1
| 54>      1       0.0161130058      1.0000000000
| 55>     s 1
| 56>      1       0.0109961087      1.0000000000
| 57>     p 3
| 58>      1       4.2749775718      0.0986125284
| 59>      2       1.9639316240     -0.5413675717
| 60>      3       0.4766632238      1.2038044706
| 61>     p 1
| 62>      1       0.2173671877      1.0000000000
| 63>     p 1
| 64>      1       0.0972762938      1.0000000000
| 65>     p 1
| 66>      1       0.0267705180      1.0000000000
| 67>     p 1
| 68>      1       0.0108454122      1.0000000000
| 69>   end
| 70>   NewAuxGTO 55
| 71>     S 1
| 72>      1 1310.72 1.0
| 73>     S 1
| 74>      1  655.36 1.0
| 75>     S 1
| 76>      1  327.68 1.0
| 77>     S 1
| 78>      1  163.84 1.0
| 79>     S 1
| 80>      1   81.82 1.0
| 81>     S 1
| 82>      1   40.96 1.0
| 83>     S 1
| 84>      1   20.48 1.0
| 85>     S 1
| 86>      1   10.24 1.0
| 87>     S 1
| 88>      1    5.12 1.0
| 89>     S 1
| 90>      1    2.56 1.0
| 91>     S 1
| 92>      1    1.28 1.0
| 93>     S 1
| 94>      1    0.64 1.0
| 95>     S 1
| 96>      1    0.32 1.0
| 97>     S 1
| 98>      1    0.16 1.0
| 99>     S 1
|100>      1    0.08 1.0
|101>     S 1
|102>      1    0.04 1.0
|103>     S 1
|104>      1    0.02 1.0
|105>     S 1
|106>      1    0.01 1.0
|107>   end
|108> end
|109>
|110> * xyz 0 2
|111> 55  0.0 0.0 0.0
|112> *
|113>
|114>
|115>                          ****END OF INPUT****

CARTESIAN COORDINATES (ANGSTROEM)
---------------------------------
  Cs     0.000000    0.000000    0.000000

 Total Charge           Charge          ....    0
 Multiplicity           Mult            ....    2
 Number of Electrons    NEL             ....    9
 Basis Dimension        Dim             ....   21

ORBITAL ENERGIES
----------------

  NO   OCC          E(Eh)            E(eV)
   0   2.0000      -1.316455       -35.8226
   1   2.0000      -0.678918       -18.4743
   2   2.0000      -0.678918       -18.4743
   3   2.0000      -0.678918       -18.4743
   4   1.0000      -0.128582        -3.4989
   5   0.0000      -0.075500        -2.0545
   6   0.0000      -0.075500        -2.0545
   7   0.0000      -0.075500        -2.0545
   8   0.0000      -0.049187        -1.3384
   9   0.0000      -0.035749        -0.9728

--------------------------
ATOM BASIS FOR ELEMENT Cs
--------------------------
 NewGTO Cs
 S 8
    1          5.868482952000         0.127123922407
    2          4.374103886000        -0.338630343790
    3          1.795120147300         0.688848178824
    4          0.378169411200        -0.862401324693
    5          0.166246931300        -0.419315049146
    6          0.027763176100        -0.011462414760
    7          0.016113005800         0.009362471464
    8          0.010996108700        -0.003750548469
 S 8
    1          5.868482952000         0.036114501559
    2          4.374103886000        -0.096201138599
    3          1.795120147300         0.195694155412
    4          0.378169411200        -0.291792316474
    5          0.166246931300        -0.301996529313
    6          0.027763176100         0.759504261902
    7          0.016113005800         0.189715467792
    8          0.010996108700         0.209158303477
 S 8
    1          5.868482952000         0.013668929409
    2          4.374103886000        -0.036411040325
    3          1.795120147300         0.074068019234
    4          0.378169411200        -0.151951549974
    5          0.166246931300         0.026901014412
    6          0.027763176100        -2.258100538546
    7          0.016113005800         8.723503000297
    8          0.010996108700        -6.841453466656
 S 8
    1          5.868482952000        -0.030859339239
    2          4.374103886000         0.082202534800
    3          1.795120147300        -0.167217933745
    4          0.378169411200         0.111538364564
    5          0.166246931300         0.828751080715
    6          0.027763176100        -8.020979673580
    7          0.016113005800        14.514511063056
    8          0.010996108700        -7.381276735023
 S 8
    1          5.868482952000        -0.199650589608
    2          4.374103886000         0.531825533046
    3          1.795120147300        -1.081849446186
    4          0.378169411200         3.647592405595
    5          0.166246931300        -3.974167368613
    6          0.027763176100         4.818374081415
    7          0.016113005800        -6.761027141499
    8          0.010996108700         3.145829789349
 S 8
    1          5.868482952000         0.381912001885
    2          4.374103886000        -1.017330098436
    3          1.795120147300         2.069471913614
    4          0.378169411200        -1.344187394124
    5          0.166246931300         0.878175023645
    6          0.027763176100        -0.756680783846
    7          0.016113005800         1.065676224412
    8          0.010996108700        -0.500349522357
 P 7
    1          4.274977571800        -0.040838126674
    2          1.963931624000         0.224195016891
    3          0.476663223800        -0.498528130846
    4          0.217367187700        -0.510242975947
    5          0.097276293800        -0.142731553767
    6          0.026770518000        -0.004391646464
    7          0.010845412200         0.000387943624
 P 7
    1          4.274977571800        -0.003776746077
    2          1.963931624000         0.020733753468
    3          0.476663223800        -0.046104322500
    4          0.217367187700        -0.088750343530
    5          0.097276293800         0.046034646837
    6          0.026770518000        -0.172032551991
    7          0.010845412200         1.122933806342
 P 7
    1          4.274977571800        -0.008559439084
    2          1.963931624000         0.046990000432
    3          0.476663223800        -0.104488660847
    4          0.217367187700        -0.082121962994
    5          0.097276293800        -0.340585054561
    6          0.026770518000         1.895114074192
    7          0.010845412200        -1.291879795538
 P 7
    1          4.274977571800        -0.025868639469
    2          1.963931624000         0.142014840909
    3          0.476663223800        -0.315789325617
    4          0.217367187700        -1.258640598876
    5          0.097276293800         2.361867162832
    6          0.026770518000        -1.420706562101
    7          0.010845412200         0.599931927931
 P 7
    1          4.274977571800        -0.251315777525
    2          1.963931624000         1.379684857656
    3          0.476663223800        -3.067917042852
    4          0.217367187700         4.023084776165
    5          0.097276293800        -2.316046341879
    6          0.026770518000         0.845400336508
    7          0.010845412200        -0.349409237415
 end
  // -----------------------------------------------
  // The basis set
  // -----------------------------------------------
  BAS[ATNO] = new BFNGauss[NSH];
  // Basis function   1 L = s
  InitBFNGauss(BAS[ATNO][  0]);
  BAS[ATNO][  0].l  = 0;
  BAS[ATNO][  0].ng = 8;
  BAS[ATNO][  0].a[  0] =         5.868482952000;     BAS[ATNO][  0].d[  0] =        -0.127123922407;
  BAS[ATNO][  0].a[  1] =         4.374103886000;     BAS[ATNO][  0].d[  1] =         0.338630343790;
  BAS[ATNO][  0].a[  2] =         1.795120147300;     BAS[ATNO][  0].d[  2] =        -0.688848178824;
  BAS[ATNO][  0].a[  3] =         0.378169411200;     BAS[ATNO][  0].d[  3] =         0.862401324693;
  BAS[ATNO][  0].a[  4] =         0.166246931300;     BAS[ATNO][  0].d[  4] =         0.419315049146;
  BAS[ATNO][  0].a[  5] =         0.027763176100;     BAS[ATNO][  0].d[  5] =         0.011462414760;
  BAS[ATNO][  0].a[  6] =         0.016113005800;     BAS[ATNO][  0].d[  6] =        -0.009362471464;
  BAS[ATNO][  0].a[  7] =         0.010996108700;     BAS[ATNO][  0].d[  7] =         0.003750548469;

FINAL SINGLE POINT ENERGY       -19.855067576525

DIPOLE MOMENT
-------------
                                X             Y             Z
Electronic contribution:      0.00000      -0.00000       0.00000
Nuclear contribution   :      0.00000       0.00000       0.00000
                        -----------------------------------------
Total Dipole Moment    :      0.00000      -0.00000       0.00000
                        -----------------------------------------
Magnitude (a.u.)       :      0.00000
Magnitude (Debye)      :      0.00000

Rotational constants in cm-1:     0.000000     0.000000     0.000000
Rotational constants in MHz :     0.000000     0.000000     0.000000

                             ****ORCA TERMINATED NORMALLY****
TOTAL RUN TIME: 0 days 0 hours 0 minutes 1 seconds 75 msec
