                         Program Version 4.2.0 -  RELEASE  -
|  1> #
|  2> # 55_Cs CCSD(T)/Def2-QZVPPD
|  3> #
|  4> ! CCSD(T) Def2-QZVPPD tightscf
|  5>
|  6> *xyz 0 2
|  7>  Cs 0.0 0.0 0.0
|  8> *
|  9>
| 10> %maxcore 5000
| 11>
| 12> %pal
| 13> nprocs 24
| 14> end
| 15>
| 16> %method
| 17> NewNCore Cs 46 end
| 18> end
| 19>
| 20>
| 21>                          ****END OF INPUT****

CARTESIAN COORDINATES (ANGSTROEM)
---------------------------------
  Cs     0.000000    0.000000    0.000000

 Total Charge           Charge          ....    0
 Multiplicity           Mult            ....    2
 Number of Electrons    NEL             ....    9
 Basis Dimension        Dim             ....   62

ORBITAL ENERGIES
----------------
                 SPIN UP ORBITALS
  NO   OCC          E(Eh)            E(eV)
   0   1.0000      -1.317818       -35.8597
   1   1.0000      -0.679575       -18.4922
   2   1.0000      -0.679575       -18.4922
   3   1.0000      -0.679575       -18.4922
   4   1.0000      -0.128912        -3.5079
   5   0.0000       0.009767         0.2658
   6   0.0000       0.009767         0.2658
   7   0.0000       0.009767         0.2658
   8   0.0000       0.025449         0.6925
   9   0.0000       0.032940         0.8963

                 SPIN DOWN ORBITALS
  NO   OCC          E(Eh)            E(eV)
   0   1.0000      -1.314930       -35.7811
   1   1.0000      -0.678088       -18.4517
   2   1.0000      -0.678088       -18.4517
   3   1.0000      -0.678088       -18.4517
   4   0.0000       0.006101         0.1660
   5   0.0000       0.022382         0.6091
   6   0.0000       0.022382         0.6091
   7   0.0000       0.022382         0.6091
   8   0.0000       0.036056         0.9811

E(0)                                       ...    -19.855219088
E(0)                                       ...    -19.855219088
E(CORR)                                    ...     -0.179944597
E(TOT)                                     ...    -20.035163685
E(CCSD(T))                                 ...    -20.041473266

MULLIKEN ATOMIC CHARGES AND SPIN DENSITIES
------------------------------------------
   0 Cs:    0.000000    1.000000
Sum of atomic charges       :    0.0000000

LOEWDIN ATOMIC CHARGES AND SPIN DENSITIES
-----------------------------------------
   0 Cs:    0.000000    1.000000

FINAL SINGLE POINT ENERGY       -20.041473266444

DIPOLE MOMENT
-------------
                                X             Y             Z
Electronic contribution:      0.00000       0.00000       0.00000
Nuclear contribution   :      0.00000       0.00000       0.00000
                        -----------------------------------------
Total Dipole Moment    :      0.00000       0.00000       0.00000
                        -----------------------------------------
Magnitude (a.u.)       :      0.00000
Magnitude (Debye)      :      0.00000

Rotational constants in cm-1:     0.000000     0.000000     0.000000
Rotational constants in MHz :     0.000000     0.000000     0.000000

                             ****ORCA TERMINATED NORMALLY****
TOTAL RUN TIME: 0 days 0 hours 0 minutes 12 seconds 709 msec
