                         Program Version 4.2.0 -  RELEASE  -
|  1> #
|  2> # 57_La CCSD(T)/Def2-QZVPPD
|  3> #
|  4> ! CCSD(T) Def2-QZVPPD verytightscf kdiis UNO
|  5>
|  6> *xyz 0 2
|  7>  La 0.0 0.0 0.0
|  8> *
|  9>
| 10> %maxcore 5000
| 11>
| 12> %pal
| 13> nprocs 24
| 14> end
| 15>
| 16> %method
| 17> NewNCore La 46 end
| 18> end
| 19>
| 20> %mdci
| 21> UseQROs true
| 22> maxdiis 40
| 23> maxiter 200
| 24> end
| 25>
| 26>
| 27>                          ****END OF INPUT****

CARTESIAN COORDINATES (ANGSTROEM)
---------------------------------
  La     0.000000    0.000000    0.000000

 Total Charge           Charge          ....    0
 Multiplicity           Mult            ....    2
 Number of Electrons    NEL             ....   11
 Basis Dimension        Dim             ....   81

ORBITAL ENERGIES
----------------
                 SPIN UP ORBITALS
  NO   OCC          E(Eh)            E(eV)
   0   1.0000      -1.826490       -49.7013
   1   1.0000      -1.054123       -28.6841
   2   1.0000      -1.054121       -28.6841
   3   1.0000      -1.027084       -27.9484
   4   1.0000      -0.227709        -6.1963
   5   1.0000      -0.188052        -5.1171
   6   0.0000       0.015209         0.4139
   7   0.0000       0.015214         0.4140
   8   0.0000       0.033224         0.9041
   9   0.0000       0.037410         1.0180
  10   0.0000       0.052323         1.4238

                 SPIN DOWN ORBITALS
  NO   OCC          E(Eh)            E(eV)
   0   1.0000      -1.808322       -49.2069
   1   1.0000      -1.035160       -28.1681
   2   1.0000      -1.005983       -27.3742
   3   1.0000      -1.005978       -27.3740
   4   1.0000      -0.185847        -5.0571
   5   0.0000       0.013844         0.3767
   6   0.0000       0.028950         0.7878
   7   0.0000       0.035269         0.9597
   8   0.0000       0.035275         0.9599
   9   0.0000       0.059518         1.6196

E(0)                                       ...    -31.071391666
E(0)                                       ...    -31.071391666
E(CORR)                                    ...     -0.265958420
E(TOT)                                     ...    -31.337350086
E(CCSD(T))                                 ...    -31.350420994

MULLIKEN ATOMIC CHARGES AND SPIN DENSITIES
------------------------------------------
   0 La:    0.000000    1.000000
Sum of atomic charges       :    0.0000000

LOEWDIN ATOMIC CHARGES AND SPIN DENSITIES
-----------------------------------------
   0 La:    0.000000    1.000000

FINAL SINGLE POINT ENERGY       -31.350420994196

DIPOLE MOMENT
-------------
                                X             Y             Z
Electronic contribution:     -0.00000       0.00000      -0.00000
Nuclear contribution   :      0.00000       0.00000       0.00000
                        -----------------------------------------
Total Dipole Moment    :     -0.00000       0.00000      -0.00000
                        -----------------------------------------
Magnitude (a.u.)       :      0.00000
Magnitude (Debye)      :      0.00000

Rotational constants in cm-1:     0.000000     0.000000     0.000000
Rotational constants in MHz :     0.000000     0.000000     0.000000

                             ****ORCA TERMINATED NORMALLY****
TOTAL RUN TIME: 0 days 0 hours 0 minutes 27 seconds 927 msec
