                         Program Version 4.2.0 -  RELEASE  -
|  1> # input to generate an atomic fitting density for Ta
|  2> # this file is use internally by ORCA
|  3> #
|  4> # atomic ground state (S=4): 1s2 2s2 2p6 3s2 3p6 4s2 3d10 4p6 5s2 4d10 5p6 6s2 4f14 5d3
|  5> #
|  6> ! RHF AllowRHF def2-SVP def2/J  NoMulliken NoLoewdin NoMayer NoPrintMOs
|  7>
|  8> %output print[p_atomdensfit] 2 end
|  9>
| 10> %scf
| 11>   guess hcore
| 12>   maxiter 1000
| 13>   maxdisk 500000
| 14>   SCFMode Conventional
| 15>   lshift 0.200000
| 16>   hftyp rohf
| 17>   rohf_case sahf
| 18>   rohf_numop   2
| 19>   rohf_norb[1] 5
| 20>   rohf_nel[1]  3
| 21> end
| 22>
| 23> %basis
| 24>   NewECP 73
| 25>     N_core 60
| 26>     lmax f
| 27>     s 3
| 28>       1      14.5464077000   1345.8806470000  2
| 29>       2       7.2732038000     36.7668062000  2
| 30>       3       2.0178811000    -12.0179609000  2
| 31>     p 3
| 32>       1       9.9355653000    378.4253015000  2
| 33>       2       4.9677824000     22.2930909000  2
| 34>       3       2.0178811000    -12.0179609000  2
| 35>     d 3
| 36>       1       6.3473769000    104.8839557000  2
| 37>       2       3.1736885000      8.7558481000  2
| 38>       3       2.0178811000    -12.0179609000  2
| 39>     f 1
| 40>       1       2.0178811000     12.0179609000  2
| 41>   end
| 42>   NewGTO 73
| 43>     s 4
| 44>      1      24.4736509440      2.2887030616
| 45>      2      18.7213725490     -8.2997748821
| 46>      3      11.5000000000     37.9651621324
| 47>      4      10.3500000000    -31.4510745200
| 48>     s 1
| 49>      1       3.8125414615      1.0000000000
| 50>     s 1
| 51>      1       1.0507430630      1.0000000000
| 52>     s 1
| 53>      1       0.4973227575      1.0000000000
| 54>     s 1
| 55>      1       0.1560265097      1.0000000000
| 56>     s 1
| 57>      1       0.0750564424      1.0000000000
| 58>     s 1
| 59>      1       0.0316326688      1.0000000000
| 60>     p 4
| 61>      1      17.0000000000     -0.0771704057
| 62>      2      12.0081865360      0.2448500499
| 63>      3       5.0278760583     -0.6757474915
| 64>      4       1.1937124184      1.2268252800
| 65>     p 1
| 66>      1       0.5788970705      1.0000000000
| 67>     p 1
| 68>      1       0.2722519880      1.0000000000
| 69>     p 1
| 70>      1       0.1000000000      1.0000000000
| 71>     p 1
| 72>      1       0.0417000000      1.0000000000
| 73>     d 3
| 74>      1       7.1419762952      0.1764265527
| 75>      2       5.7696869171     -0.3416152275
| 76>      3       1.2199483941      1.0661973413
| 77>     d 1
| 78>      1       0.5236603425      1.0000000000
| 79>     d 1
| 80>      1       0.2138480877      1.0000000000
| 81>     d 1
| 82>      1       0.0802542567      1.0000000000
| 83>     p 1
| 84>      1       0.0204136737      1.0000000000
| 85>   end
| 86>   NewAuxGTO 73
| 87>     S 1
| 88>      1 1310.72 1.0
| 89>     S 1
| 90>      1  655.36 1.0
| 91>     S 1
| 92>      1  327.68 1.0
| 93>     S 1
| 94>      1  163.84 1.0
| 95>     S 1
| 96>      1   81.82 1.0
| 97>     S 1
| 98>      1   40.96 1.0
| 99>     S 1
|100>      1   20.48 1.0
|101>     S 1
|102>      1   10.24 1.0
|103>     S 1
|104>      1    5.12 1.0
|105>     S 1
|106>      1    2.56 1.0
|107>     S 1
|108>      1    1.28 1.0
|109>     S 1
|110>      1    0.64 1.0
|111>     S 1
|112>      1    0.32 1.0
|113>     S 1
|114>      1    0.16 1.0
|115>     S 1
|116>      1    0.08 1.0
|117>     S 1
|118>      1    0.04 1.0
|119>     S 1
|120>      1    0.02 1.0
|121>     S 1
|122>      1    0.01 1.0
|123>   end
|124> end
|125>
|126> * xyz 0 4
|127> 73  0.0 0.0 0.0
|128> *
|129>
|130>
|131>                          ****END OF INPUT****

CARTESIAN COORDINATES (ANGSTROEM)
---------------------------------
  Ta     0.000000    0.000000    0.000000

 Total Charge           Charge          ....    0
 Multiplicity           Mult            ....    4
 Number of Electrons    NEL             ....   13
 Basis Dimension        Dim             ....   45

ORBITAL ENERGIES
----------------

  NO   OCC          E(Eh)            E(eV)
   0   2.0000      -3.227043       -87.8123
   1   2.0000      -1.795741       -48.8646
   2   2.0000      -1.795723       -48.8641
   3   2.0000      -1.787653       -48.6445
   4   2.0000      -0.292968        -7.9721
   5   0.6000      -0.368830       -10.0364
   6   0.6000      -0.356747        -9.7076
   7   0.6000      -0.356721        -9.7069
   8   0.6000      -0.354295        -9.6409
   9   0.6000      -0.182629        -4.9696
  10   0.0000      -0.073169        -1.9910
  11   0.0000      -0.073161        -1.9908
  12   0.0000      -0.146234        -3.9792
  13   0.0000       0.011623         0.3163
  14   0.0000       0.000271         0.0074

CleanUpVectors: The p-vectors have cracked symmetry
CleanUpVectors: The p-vectors have cracked symmetry
CleanUpVectors: The p-vectors have cracked symmetry
CleanUpVectors: The d-vectors have cracked symmetry at i=5
CleanUpVectors: The d-vectors have cracked symmetry at i=6
CleanUpVectors: The d-vectors have cracked symmetry at i=7
CleanUpVectors: The d-vectors have cracked symmetry at i=8
CleanUpVectors: The p-vectors have cracked symmetry
CleanUpVectors: The p-vectors have cracked symmetry
CleanUpVectors: The p-vectors have cracked symmetry
CleanUpVectors: The d-vectors have cracked symmetry at i=12
CleanUpVectors: The p-vectors have cracked symmetry
CleanUpVectors: The p-vectors have cracked symmetry
CleanUpVectors: The p-vectors have cracked symmetry
CleanUpVectors: The d-vectors have cracked symmetry at i=17
CleanUpVectors: The d-vectors have cracked symmetry at i=18
CleanUpVectors: The d-vectors have cracked symmetry at i=19
CleanUpVectors: The d-vectors have cracked symmetry at i=20
CleanUpVectors: The d-vectors have cracked symmetry at i=21
CleanUpVectors: The p-vectors have cracked symmetry
CleanUpVectors: The p-vectors have cracked symmetry
CleanUpVectors: The p-vectors have cracked symmetry
CleanUpVectors: The d-vectors have cracked symmetry at i=26
CleanUpVectors: The d-vectors have cracked symmetry at i=27
CleanUpVectors: The d-vectors have cracked symmetry at i=28
CleanUpVectors: The d-vectors have cracked symmetry at i=29
CleanUpVectors: The d-vectors have cracked symmetry at i=30
CleanUpVectors: The p-vectors have cracked symmetry
CleanUpVectors: The p-vectors have cracked symmetry
CleanUpVectors: The p-vectors have cracked symmetry
CleanUpVectors: The d-vectors have cracked symmetry at i=35
CleanUpVectors: The d-vectors have cracked symmetry at i=36
CleanUpVectors: The d-vectors have cracked symmetry at i=37
CleanUpVectors: The d-vectors have cracked symmetry at i=38
CleanUpVectors: The d-vectors have cracked symmetry at i=39
CleanUpVectors: The p-vectors have cracked symmetry
CleanUpVectors: The p-vectors have cracked symmetry
CleanUpVectors: The p-vectors have cracked symmetry
--------------------------
ATOM BASIS FOR ELEMENT Ta
--------------------------
 NewGTO Ta
 S 10
    1         24.473650944000         0.205671569497
    2         18.721372549000        -0.745849365571
    3         11.500000000000         3.411693990800
    4         10.350000000000        -2.826313280841
    5          3.812541461500        -0.618682633737
    6          1.050743063000         0.785845421041
    7          0.497322757500         0.544452184353
    8          0.156026509700         0.028451656202
    9          0.075056442400        -0.005554090741
   10          0.031632668800         0.000873005570
 P 25
    1         17.000000000000         0.003131384400
    2         12.008186536000        -0.009935410079
    3          5.027876058300         0.027420163650
    4          1.193712418400        -0.049781538772
    5         17.000000000000        -0.000771483850
    6         12.008186536000         0.002447801817
    7          5.027876058300        -0.006755546662
    8          1.193712418400         0.012264752040
    9         17.000000000000        -0.030839802592
   10         12.008186536000         0.097850038950
   11          5.027876058300        -0.270050663214
   12          1.193712418400         0.490279260639
   13          0.578897070500        -0.050985835073
   14          0.578897070500         0.012561456318
   15          0.578897070500         0.502139912491
   16          0.272251988000        -0.015208903618
   17          0.272251988000         0.003747040294
   18          0.272251988000         0.149786651940
   19          0.100000000000        -0.001207341343
   20          0.100000000000         0.000297454490
   21          0.100000000000         0.011890641304
   22          0.041700000000         0.000155592164
   23          0.041700000000        -0.000038333474
   24          0.041700000000        -0.001532367484
   25          0.020413673700        -0.000067760179
 S 10
    1         24.473650944000         0.070005655674
    2         18.721372549000        -0.253869185705
    3         11.500000000000         1.161258580216
    4         10.350000000000        -0.962009065469
    5          3.812541461500        -0.228291887036
    6          1.050743063000         0.354944911574
    7          0.497322757500         0.436457942670
    8          0.156026509700        -0.277339251316
    9          0.075056442400        -0.711949434150
   10          0.031632668800        -0.252921300020
 D 25
    1         24.473650944000        -0.000000307351
    2         18.721372549000         0.000001457044
    3         11.500000000000        -0.000010850041
    4         10.350000000000         0.000009987093
    5          3.812541461500         0.000006495662
    6          1.050743063000        -0.000039471489
    7          0.497322757500        -0.000090814837
    8          0.156026509700         0.000442566382
    9          0.075056442400         0.000494696806
   10          0.031632668800        -0.000108827951
   11          7.141976295200        -0.016522691281
   12          5.769686917100         0.031992933346
   13          1.219948394100        -0.099851463658
   14          7.141976295200         0.020288067112
   15          5.769686917100        -0.039283841099
   16          1.219948394100         0.122606732850
   17          7.141976295200        -0.006624628284
   18          5.769686917100         0.012827286278
   19          1.219948394100        -0.040034569376
   20          7.141976295200        -0.030863594138
   21          5.769686917100         0.059761263663
   22          1.219948394100        -0.186517740723
   23          7.141976295200         0.003623243902
   24          5.769686917100        -0.007015697303
   25          1.219948394100         0.021896324315
 S 10
    1         24.473650944000         1.687857054483
    2         18.721372549000        -6.120861120176
    3         11.500000000000        27.998287678687
    4         10.350000000000       -23.194322972831
    5          3.812541461500        -1.750642434994
    6          1.050743063000         2.192234328849
    7          0.497322757500        -1.778416481309
    8          0.156026509700         1.038390501065
    9          0.075056442400        -0.680148789663
   10          0.031632668800         0.184452190202
 S 10
    1         24.473650944000         1.952159819049
    2         18.721372549000        -7.079331217683
    3         11.500000000000        32.382559923153
    4         10.350000000000       -26.826338887732
    5          3.812541461500         0.361790266736
    6          1.050743063000         0.192401128550
    7          0.497322757500        -0.191138423254
    8          0.156026509700         0.122285270637
    9          0.075056442400        -0.081717771609
   10          0.031632668800         0.022404595162
 D 25
    1          7.141976295200        -0.034771420717
    2          5.769686917100         0.067327999199
    3          1.219948394100        -0.210133881521
    4          7.141976295200         0.001632664096
    5          5.769686917100        -0.003161332056
    6          1.219948394100         0.009866667414
    7          7.141976295200        -0.004117616115
    8          5.769686917100         0.007972951602
    9          1.219948394100        -0.024883960422
   10          7.141976295200         0.020472152682
   11          5.769686917100        -0.039640286503
   12          1.219948394100         0.123719215876
   13          7.141976295200        -0.000848552692
   14          5.769686917100         0.001643054951
   15          1.219948394100        -0.005128052496
   16          0.523660342500        -0.377744901549
   17          0.523660342500         0.017736708065
   18          0.523660342500        -0.044732382573
   19          0.523660342500         0.222402511592
   20          0.523660342500        -0.009218388159
   21          0.213848087700        -0.335217644005
   22          0.213848087700         0.015739874888
   23          0.213848087700        -0.039696323724
   24          0.213848087700         0.197364003196
   25          0.213848087700        -0.008180564046
 D 25
    1          7.141976295200        -0.003746557798
    2          5.769686917100         0.007254470344
    3          1.219948394100        -0.022641546308
    4          7.141976295200         0.002796397649
    5          5.769686917100        -0.005414672589
    6          1.219948394100         0.016899450182
    7          7.141976295200         0.021027051197
    8          5.769686917100        -0.040714738051
    9          1.219948394100         0.127072630162
   10          7.141976295200        -0.003278388736
   11          5.769686917100         0.006347953280
   12          1.219948394100        -0.019812263521
   13          7.141976295200        -0.022224057907
   14          5.769686917100         0.043032505492
   15          1.219948394100        -0.134306492367
   16          0.523660342500        -0.043111780472
   17          0.523660342500         0.032178252157
   18          0.523660342500         0.241959063266
   19          0.523660342500        -0.037724541599
   20          0.523660342500        -0.255733064170
   21          0.213848087700        -0.038732976621
   22          0.213848087700         0.028909951638
   23          0.213848087700         0.217383616217
   24          0.213848087700        -0.033892912140
   25          0.213848087700        -0.229758610921
 D 25
    1          7.141976295200         0.003011922934
    2          5.769686917100        -0.005831994803
    3          1.219948394100         0.018201932620
    4          7.141976295200         0.001249802482
    5          5.769686917100        -0.002419996041
    6          1.219948394100         0.007552922520
    7          7.141976295200        -0.016991514357
    8          5.769686917100         0.032900716779
    9          1.219948394100        -0.102684698846
   10          7.141976295200         0.000912000266
   11          5.769686917100        -0.001765908666
   12          1.219948394100         0.005511484775
   13          7.141976295200        -0.016561364890
   14          5.769686917100         0.032067817163
   15          1.219948394100        -0.100085179608
   16          0.523660342500         0.007938184656
   17          0.523660342500         0.003293963060
   18          0.523660342500        -0.044782612805
   19          0.523660342500         0.002403655963
   20          0.523660342500        -0.043648916501
   21          0.213848087700         0.075477807014
   22          0.213848087700         0.031319642825
   23          0.213848087700        -0.425801811520
   24          0.213848087700         0.022854429409
   25          0.213848087700        -0.415022406084
 P 25
    1         17.000000000000         0.000890341421
    2         12.008186536000        -0.002824918948
    3          5.027876058300         0.007796330422
    4          1.193712418400        -0.014154303750
    5         17.000000000000        -0.000219354745
    6         12.008186536000         0.000695979497
    7          5.027876058300        -0.001920793562
    8          1.193712418400         0.003487216940
    9         17.000000000000        -0.008768630781
   10         12.008186536000         0.027821542013
   11          5.027876058300        -0.076783064708
   12          1.193712418400         0.139400302693
   13          0.578897070500        -0.015209889463
   14          0.578897070500         0.003747283169
   15          0.578897070500         0.149796361069
   16          0.272251988000        -0.052818242653
   17          0.272251988000         0.013012909267
   18          0.272251988000         0.520186590802
   19          0.100000000000         0.277075968557
   20          0.100000000000        -0.068263619881
   21          0.100000000000        -2.728814823054
   22          0.041700000000        -0.329551784133
   23          0.041700000000         0.081192164861
   24          0.041700000000         3.245628980921
   25          0.020413673700         0.144000388239
 D 25
    1         24.473650944000        -0.000000051562
    2         18.721372549000         0.000000244436
    3         11.500000000000        -0.000001820224
    4         10.350000000000         0.000001675454
    5          3.812541461500         0.000001192077
    6          1.050743063000        -0.000015270479
    7          0.497322757500         0.000029193764
    8          0.156026509700        -0.000041378365
    9          0.075056442400         0.000086524857
   10          0.031632668800        -0.000140600685
   11          7.141976295200        -0.007934325778
   12          5.769686917100         0.015363257197
   13          1.219948394100        -0.047949454998
   14          7.141976295200         0.009729122062
   15          5.769686917100        -0.018838526264
   16          1.219948394100         0.058795934724
   17          7.141976295200        -0.003180744177
   18          5.769686917100         0.006158883847
   19          1.219948394100        -0.019222168845
   20          7.141976295200        -0.014819840925
   21          5.769686917100         0.028695699437
   22          1.219948394100        -0.089560640110
   23          7.141976295200         0.001738495878
   24          5.769686917100        -0.003366254432
   25          1.219948394100         0.010506239877
 P 25
    1         17.000000000000         0.002346759179
    2         12.008186536000        -0.007445912676
    3          5.027876058300         0.020549543751
    4          1.193712418400        -0.037307870297
    5         17.000000000000        -0.000578174569
    6         12.008186536000         0.001834460643
    7          5.027876058300        -0.005062821831
    8          1.193712418400         0.009191595808
    9         17.000000000000        -0.023112329986
   10         12.008186536000         0.073331934684
   11          5.027876058300        -0.202384565288
   12          1.193712418400         0.367430888165
   13          0.578897070500        -0.159210462798
   14          0.578897070500         0.039224919858
   15          0.578897070500         1.568002710580
   16          0.272251988000         0.347187268591
   17          0.272251988000        -0.085537046666
   18          0.272251988000        -3.419314086903
   19          0.100000000000        -0.299034879636
   20          0.100000000000         0.073673670576
   21          0.100000000000         2.945079698822
   22          0.041700000000         0.195419045984
   23          0.041700000000        -0.048145682656
   24          0.041700000000        -1.924607142122
   25          0.020413673700        -0.072812104830
 D 25
    1          7.141976295200        -0.038385266280
    2          5.769686917100         0.074325498471
    3          1.219948394100        -0.231973408915
    4          7.141976295200         0.028650423712
    5          5.769686917100        -0.055475895575
    6          1.219948394100         0.173142903499
    7          7.141976295200         0.215432138751
    8          5.769686917100        -0.417141852878
    9          1.219948394100         1.301919524308
   10          7.141976295200        -0.033588651610
   11          5.769686917100         0.065037800068
   12          1.219948394100        -0.202986061319
   13          7.141976295200        -0.227696041718
   14          5.769686917100         0.440888482498
   15          1.219948394100        -1.376033882591
   16          0.523660342500         0.279330274326
   17          0.523660342500        -0.208489649561
   18          0.523660342500        -1.567703555236
   19          0.523660342500         0.244425222951
   20          0.523660342500         1.656948198092
   21          0.213848087700        -0.152459116636
   22          0.213848087700         0.113794138055
   23          0.213848087700         0.855656264809
   24          0.213848087700        -0.133407858008
   25          0.213848087700        -0.904366199481
 P 25
    1         17.000000000000         0.020785319911
    2         12.008186536000        -0.065948682934
    3          5.027876058300         0.182007955801
    4          1.193712418400        -0.330436981486
    5         17.000000000000        -0.005120909382
    6         12.008186536000         0.016247872568
    7          5.027876058300        -0.044841563783
    8          1.193712418400         0.081410237900
    9         17.000000000000        -0.204706646281
   10         12.008186536000         0.649503292125
   11          5.027876058300        -1.792526571075
   12          1.193712418400         3.254347134289
   13          0.578897070500         0.459432125569
   14          0.578897070500        -0.113190958450
   15          0.578897070500        -4.524770848961
   16          0.272251988000        -0.315234455132
   17          0.272251988000         0.077664769455
   18          0.272251988000         3.104623281194
   19          0.100000000000         0.163316574470
   20          0.100000000000        -0.040236541082
   21          0.100000000000        -1.608442323005
   22          0.041700000000        -0.099526604543
   23          0.041700000000         0.024520513766
   24          0.041700000000         0.980199367587
   25          0.020413673700         0.037798245667
 end
  // -----------------------------------------------
  // The basis set
  // -----------------------------------------------
  BAS[ATNO] = new BFNGauss[NSH];
  // Basis function   1 L = s
  InitBFNGauss(BAS[ATNO][  0]);
  BAS[ATNO][  0].l  = 0;
  BAS[ATNO][  0].ng = 10;
  BAS[ATNO][  0].a[  0] =        24.473650944000;     BAS[ATNO][  0].d[  0] =         0.205671569497;
  BAS[ATNO][  0].a[  1] =        18.721372549000;     BAS[ATNO][  0].d[  1] =        -0.745849365571;
  BAS[ATNO][  0].a[  2] =        11.500000000000;     BAS[ATNO][  0].d[  2] =         3.411693990800;
  BAS[ATNO][  0].a[  3] =        10.350000000000;     BAS[ATNO][  0].d[  3] =        -2.826313280841;
  BAS[ATNO][  0].a[  4] =         3.812541461500;     BAS[ATNO][  0].d[  4] =        -0.618682633737;
  BAS[ATNO][  0].a[  5] =         1.050743063000;     BAS[ATNO][  0].d[  5] =         0.785845421041;
  BAS[ATNO][  0].a[  6] =         0.497322757500;     BAS[ATNO][  0].d[  6] =         0.544452184353;
  BAS[ATNO][  0].a[  7] =         0.156026509700;     BAS[ATNO][  0].d[  7] =         0.028451656202;
  BAS[ATNO][  0].a[  8] =         0.075056442400;     BAS[ATNO][  0].d[  8] =        -0.005554090741;
  BAS[ATNO][  0].a[  9] =         0.031632668800;     BAS[ATNO][  0].d[  9] =         0.000873005570;

FINAL SINGLE POINT ENERGY       -56.207925121243

DIPOLE MOMENT
-------------
                                X             Y             Z
Electronic contribution:     -0.00000      -0.00000       0.00000
Nuclear contribution   :      0.00000       0.00000       0.00000
                        -----------------------------------------
Total Dipole Moment    :     -0.00000      -0.00000       0.00000
                        -----------------------------------------
Magnitude (a.u.)       :      0.00000
Magnitude (Debye)      :      0.00000

Rotational constants in cm-1:     0.000000     0.000000     0.000000
Rotational constants in MHz :     0.000000     0.000000     0.000000

                             ****ORCA TERMINATED NORMALLY****
TOTAL RUN TIME: 0 days 0 hours 0 minutes 2 seconds 463 msec
