                         Program Version 4.2.0 -  RELEASE  -
|  1> #
|  2> # 73_Ta CCSD(T)/Def2-QZVPPD
|  3> #
|  4> ! CCSD(T) Def2-QZVPPD tightscf slowconv
|  5>
|  6> *xyz 0 4
|  7>  Ta 0.0 0.0 0.0
|  8> *
|  9>
| 10> %maxcore 5000
| 11>
| 12> %pal
| 13> nprocs 24
| 14> end
| 15>
| 16> %method
| 17> NewNCore Ta 60 end
| 18> end
| 19>
| 20>
| 21>                          ****END OF INPUT****

CARTESIAN COORDINATES (ANGSTROEM)
---------------------------------
  Ta     0.000000    0.000000    0.000000

 Total Charge           Charge          ....    0
 Multiplicity           Mult            ....    4
 Number of Electrons    NEL             ....   13
 Basis Dimension        Dim             ....   84

ORBITAL ENERGIES
----------------
                 SPIN UP ORBITALS
  NO   OCC          E(Eh)            E(eV)
   0   1.0000      -3.186184       -86.7005
   1   1.0000      -1.791178       -48.7404
   2   1.0000      -1.791178       -48.7404
   3   1.0000      -1.791176       -48.7404
   4   1.0000      -0.327965        -8.9244
   5   1.0000      -0.327963        -8.9243
   6   1.0000      -0.327963        -8.9243
   7   1.0000      -0.282933        -7.6990
   8   0.0000       0.020941         0.5698
   9   0.0000       0.020941         0.5698
  10   0.0000       0.020941         0.5698
  11   0.0000       0.080112         2.1800
  12   0.0000       0.080112         2.1800

                 SPIN DOWN ORBITALS
  NO   OCC          E(Eh)            E(eV)
   0   1.0000      -3.083051       -83.8941
   1   1.0000      -1.632383       -44.4194
   2   1.0000      -1.632381       -44.4193
   3   1.0000      -1.632380       -44.4193
   4   1.0000      -0.217465        -5.9175
   5   0.0000       0.025843         0.7032
   6   0.0000       0.025844         0.7032
   7   0.0000       0.025844         0.7032
   8   0.0000       0.103285         2.8105
   9   0.0000       0.103286         2.8105

E(0)                                       ...    -56.293559276
E(0)                                       ...    -56.293559276
E(CORR)                                    ...     -0.339080942
E(TOT)                                     ...    -56.632640217
E(CCSD(T))                                 ...    -56.646622404

MULLIKEN ATOMIC CHARGES AND SPIN DENSITIES
------------------------------------------
   0 Ta:    0.000000    3.000000
Sum of atomic charges       :    0.0000000

LOEWDIN ATOMIC CHARGES AND SPIN DENSITIES
-----------------------------------------
   0 Ta:    0.000000    3.000000

FINAL SINGLE POINT ENERGY       -56.646622404123

DIPOLE MOMENT
-------------
                                X             Y             Z
Electronic contribution:      0.00000      -0.00000       0.00000
Nuclear contribution   :      0.00000       0.00000       0.00000
                        -----------------------------------------
Total Dipole Moment    :      0.00000      -0.00000       0.00000
                        -----------------------------------------
Magnitude (a.u.)       :      0.00000
Magnitude (Debye)      :      0.00000

Rotational constants in cm-1:     0.000000     0.000000     0.000000
Rotational constants in MHz :     0.000000     0.000000     0.000000

                             ****ORCA TERMINATED NORMALLY****
TOTAL RUN TIME: 0 days 0 hours 0 minutes 26 seconds 854 msec
