                         Program Version 4.2.0 -  RELEASE  -
|  1> #
|  2> # 74_W CCSD(T)/Def2-QZVPPD
|  3> #
|  4> ! CCSD(T) Def2-QZVPPD tightscf veryslowconv kdiis
|  5>
|  6> *xyz 0 5
|  7>  W 0.0 0.0 0.0
|  8> *
|  9>
| 10> %maxcore 5000
| 11>
| 12> %pal
| 13> nprocs 24
| 14> end
| 15>
| 16> %method
| 17> NewNCore W 60 end
| 18> end
| 19>
| 20>
| 21>                          ****END OF INPUT****

CARTESIAN COORDINATES (ANGSTROEM)
---------------------------------
  W      0.000000    0.000000    0.000000

 Total Charge           Charge          ....    0
 Multiplicity           Mult            ....    5
 Number of Electrons    NEL             ....   14
 Basis Dimension        Dim             ....   84

ORBITAL ENERGIES
----------------
                 SPIN UP ORBITALS
  NO   OCC          E(Eh)            E(eV)
   0   1.0000      -3.475434       -94.5714
   1   1.0000      -2.004606       -54.5481
   2   1.0000      -2.004605       -54.5481
   3   1.0000      -1.973400       -53.6989
   4   1.0000      -0.379841       -10.3360
   5   1.0000      -0.379840       -10.3360
   6   1.0000      -0.360407        -9.8072
   7   1.0000      -0.360407        -9.8072
   8   1.0000      -0.305151        -8.3036
   9   0.0000       0.020556         0.5593
  10   0.0000       0.020556         0.5593
  11   0.0000       0.027300         0.7429
  12   0.0000       0.058331         1.5873
  13   0.0000       0.087385         2.3779

                 SPIN DOWN ORBITALS
  NO   OCC          E(Eh)            E(eV)
   0   1.0000      -3.322971       -90.4226
   1   1.0000      -1.795733       -48.8644
   2   1.0000      -1.750974       -47.6464
   3   1.0000      -1.750973       -47.6464
   4   1.0000      -0.228394        -6.2149
   5   0.0000       0.022176         0.6034
   6   0.0000       0.031533         0.8581
   7   0.0000       0.031534         0.8581
   8   0.0000       0.088163         2.3990
   9   0.0000       0.095977         2.6117

E(0)                                       ...    -66.322617384
E(0)                                       ...    -66.322617384
E(CORR)                                    ...     -0.377345781
E(TOT)                                     ...    -66.699963165
E(CCSD(T))                                 ...    -66.715339165

MULLIKEN ATOMIC CHARGES AND SPIN DENSITIES
------------------------------------------
   0 W :   -0.000000    4.000000
Sum of atomic charges       :   -0.0000000

LOEWDIN ATOMIC CHARGES AND SPIN DENSITIES
-----------------------------------------
   0 W :   -0.000000    4.000000

FINAL SINGLE POINT ENERGY       -66.715339165163

DIPOLE MOMENT
-------------
                                X             Y             Z
Electronic contribution:      0.00000      -0.00000       0.00000
Nuclear contribution   :      0.00000       0.00000       0.00000
                        -----------------------------------------
Total Dipole Moment    :      0.00000      -0.00000       0.00000
                        -----------------------------------------
Magnitude (a.u.)       :      0.00000
Magnitude (Debye)      :      0.00000

Rotational constants in cm-1:     0.000000     0.000000     0.000000
Rotational constants in MHz :     0.000000     0.000000     0.000000

                             ****ORCA TERMINATED NORMALLY****
TOTAL RUN TIME: 0 days 0 hours 0 minutes 33 seconds 583 msec
