                         Program Version 4.2.0 -  RELEASE  -
|  1> # input to generate an atomic fitting density for W
|  2> # this file is use internally by ORCA
|  3> #
|  4> # atomic ground state (S=5): 1s2 2s2 2p6 3s2 3p6 4s2 3d10 4p6 5s2 4d10 5p6 6s2 4f14 5d4
|  5> #
|  6> ! RHF AllowRHF def2-SVP def2/J  NoMulliken NoLoewdin NoMayer NoPrintMOs
|  7>
|  8> %output print[p_atomdensfit] 2 end
|  9>
| 10> %scf
| 11>   guess hcore
| 12>   maxiter 1000
| 13>   maxdisk 500000
| 14>   SCFMode Conventional
| 15>   lshift 0.500000
| 16>   hftyp rohf
| 17>   rohf_case sahf
| 18>   rohf_numop   2
| 19>   rohf_norb[1] 5
| 20>   rohf_nel[1]  4
| 21> end
| 22>
| 23> %basis
| 24>   NewECP 74
| 25>     N_core 60
| 26>     lmax f
| 27>     s 3
| 28>       1      14.3228564000   1192.3958823000  2
| 29>       2       7.1614281000     32.5229332000  2
| 30>       3       2.2588885000    -14.1525795000  2
| 31>     p 3
| 32>       1      10.0216411000    359.0319671000  2
| 33>       2       5.0108204000     24.0303802000  2
| 34>       3       2.2588885000    -14.1525795000  2
| 35>     d 3
| 36>       1       6.5979974000    108.3013490000  2
| 37>       2       3.2989987000     10.9825283000  2
| 38>       3       2.2588885000    -14.1525795000  2
| 39>     f 1
| 40>       1       2.2588885000     14.1525795000  2
| 41>   end
| 42>   NewGTO 74
| 43>     s 4
| 44>      1      22.1064878830      6.4354751734
| 45>      2      18.9580626200    -15.1145078412
| 46>      3      13.1286990490     20.7816966137
| 47>      4      10.1494173780    -11.4729180780
| 48>     s 1
| 49>      1       4.0160322414      1.0000000000
| 50>     s 1
| 51>      1       1.1234496158      1.0000000000
| 52>     s 1
| 53>      1       0.5350066282      1.0000000000
| 54>     s 1
| 55>      1       0.1712744966      1.0000000000
| 56>     s 1
| 57>      1       0.0804528979      1.0000000000
| 58>     s 1
| 59>      1       0.0336698722      1.0000000000
| 60>     p 4
| 61>      1      17.0000000000     -0.0915365247
| 62>      2      12.4319734320      0.2639678450
| 63>      3       5.1586217658     -0.7116151539
| 64>      4       1.2801454812      1.2480085239
| 65>     p 1
| 66>      1       0.6285679090      1.0000000000
| 67>     p 1
| 68>      1       0.2938042355      1.0000000000
| 69>     p 1
| 70>      1       0.1000000000      1.0000000000
| 71>     p 1
| 72>      1       0.0417000000      1.0000000000
| 73>     d 3
| 74>      1       7.4064737315      0.1691665879
| 75>      2       5.9026268603     -0.3435591801
| 76>      3       1.2984756750      1.0723513542
| 77>     d 1
| 78>      1       0.5715350854      1.0000000000
| 79>     d 1
| 80>      1       0.2384552661      1.0000000000
| 81>     d 1
| 82>      1       0.0911442673      1.0000000000
| 83>     p 1
| 84>      1       0.0206378367      1.0000000000
| 85>   end
| 86>   NewAuxGTO 74
| 87>     S 1
| 88>      1 1310.72 1.0
| 89>     S 1
| 90>      1  655.36 1.0
| 91>     S 1
| 92>      1  327.68 1.0
| 93>     S 1
| 94>      1  163.84 1.0
| 95>     S 1
| 96>      1   81.82 1.0
| 97>     S 1
| 98>      1   40.96 1.0
| 99>     S 1
|100>      1   20.48 1.0
|101>     S 1
|102>      1   10.24 1.0
|103>     S 1
|104>      1    5.12 1.0
|105>     S 1
|106>      1    2.56 1.0
|107>     S 1
|108>      1    1.28 1.0
|109>     S 1
|110>      1    0.64 1.0
|111>     S 1
|112>      1    0.32 1.0
|113>     S 1
|114>      1    0.16 1.0
|115>     S 1
|116>      1    0.08 1.0
|117>     S 1
|118>      1    0.04 1.0
|119>     S 1
|120>      1    0.02 1.0
|121>     S 1
|122>      1    0.01 1.0
|123>   end
|124> end
|125>
|126> * xyz 0 5
|127> 74  0.0 0.0 0.0
|128> *
|129>
|130>
|131>                          ****END OF INPUT****

CARTESIAN COORDINATES (ANGSTROEM)
---------------------------------
  W      0.000000    0.000000    0.000000

 Total Charge           Charge          ....    0
 Multiplicity           Mult            ....    5
 Number of Electrons    NEL             ....   14
 Basis Dimension        Dim             ....   45

ORBITAL ENERGIES
----------------

  NO   OCC          E(Eh)            E(eV)
   0   2.0000      -3.410205       -92.7964
   1   2.0000      -1.889510       -51.4162
   2   2.0000      -1.889478       -51.4153
   3   2.0000      -1.889475       -51.4152
   4   2.0000      -0.260311        -7.0834
   5   0.8000      -0.373073       -10.1518
   6   0.8000      -0.373065       -10.1516
   7   0.8000      -0.373060       -10.1515
   8   0.8000      -0.373013       -10.1502
   9   0.8000      -0.373012       -10.1502
  10   0.0000      -0.018162        -0.4942
  11   0.0000      -0.018149        -0.4939
  12   0.0000      -0.018148        -0.4938
  13   0.0000       0.044836         1.2201
  14   0.0000       0.044861         1.2207

CleanUpVectors: The p-vectors have cracked symmetry
CleanUpVectors: The p-vectors have cracked symmetry
CleanUpVectors: The p-vectors have cracked symmetry
CleanUpVectors: The d-vectors have cracked symmetry at i=5
CleanUpVectors: The d-vectors have cracked symmetry at i=6
CleanUpVectors: The d-vectors have cracked symmetry at i=7
CleanUpVectors: The d-vectors have cracked symmetry at i=8
CleanUpVectors: The d-vectors have cracked symmetry at i=9
CleanUpVectors: The p-vectors have cracked symmetry
CleanUpVectors: The p-vectors have cracked symmetry
CleanUpVectors: The p-vectors have cracked symmetry
CleanUpVectors: The p-vectors have cracked symmetry
CleanUpVectors: The p-vectors have cracked symmetry
CleanUpVectors: The p-vectors have cracked symmetry
CleanUpVectors: The d-vectors have cracked symmetry at i=17
CleanUpVectors: The d-vectors have cracked symmetry at i=18
CleanUpVectors: The d-vectors have cracked symmetry at i=19
CleanUpVectors: The d-vectors have cracked symmetry at i=20
CleanUpVectors: The d-vectors have cracked symmetry at i=21
CleanUpVectors: The p-vectors have cracked symmetry
CleanUpVectors: The p-vectors have cracked symmetry
CleanUpVectors: The p-vectors have cracked symmetry
CleanUpVectors: The p-vectors have cracked symmetry
CleanUpVectors: The p-vectors have cracked symmetry
CleanUpVectors: The p-vectors have cracked symmetry
CleanUpVectors: The d-vectors have cracked symmetry at i=29
CleanUpVectors: The d-vectors have cracked symmetry at i=30
CleanUpVectors: The d-vectors have cracked symmetry at i=31
CleanUpVectors: The d-vectors have cracked symmetry at i=32
CleanUpVectors: The d-vectors have cracked symmetry at i=33
CleanUpVectors: The d-vectors have cracked symmetry at i=35
CleanUpVectors: The d-vectors have cracked symmetry at i=36
CleanUpVectors: The d-vectors have cracked symmetry at i=37
CleanUpVectors: The d-vectors have cracked symmetry at i=38
CleanUpVectors: The d-vectors have cracked symmetry at i=39
CleanUpVectors: The p-vectors have cracked symmetry
CleanUpVectors: The p-vectors have cracked symmetry
CleanUpVectors: The p-vectors have cracked symmetry
--------------------------
ATOM BASIS FOR ELEMENT W
--------------------------
 NewGTO W
 S 10
    1         22.106487883000         0.647885571928
    2         18.958062620000        -1.521639240811
    3         13.128699049000         2.092178282632
    4         10.149417378000        -1.155025524980
    5          4.016032241400        -0.655205055229
    6          1.123449615800         0.798146740620
    7          0.535006628200         0.542302695981
    8          0.171274496600         0.036174072748
    9          0.080452897900        -0.007990567455
   10          0.033669872200         0.001638820926
 P 25
    1         17.000000000000        -0.008733293520
    2         12.431973432000         0.025184577169
    3          5.158621765800        -0.067893598018
    4          1.280145481200         0.119069680544
    5         17.000000000000        -0.003190922375
    6         12.431973432000         0.009201801200
    7          5.158621765800        -0.024806586489
    8          1.280145481200         0.043505019837
    9         17.000000000000        -0.035000722025
   10         12.431973432000         0.100933099620
   11          5.158621765800        -0.272099517348
   12          1.280145481200         0.477199670549
   13          0.628567909000         0.120376188591
   14          0.628567909000         0.043982384505
   15          0.628567909000         0.482435807966
   16          0.293804235500         0.039616234474
   17          0.293804235500         0.014474760147
   18          0.293804235500         0.158771350968
   19          0.100000000000         0.002599103558
   20          0.100000000000         0.000949646050
   21          0.100000000000         0.010416517085
   22          0.041700000000        -0.000189980230
   23          0.041700000000        -0.000069413923
   24          0.041700000000        -0.000761390328
   25          0.020637836700         0.000076861465
 S 10
    1         22.106487883000         0.210782333452
    2         18.958062620000        -0.495048329130
    3         13.128699049000         0.680666833031
    4         10.149417378000        -0.375774652038
    5          4.016032241400        -0.230679155605
    6          1.123449615800         0.346372497069
    7          0.535006628200         0.396590484219
    8          0.171274496600        -0.189661750365
    9          0.080452897900        -0.680652336521
   10          0.033669872200        -0.350129882513
 D 25
    1         22.106487883000        -0.000003483153
    2         18.958062620000         0.000009539196
    3         13.128699049000        -0.000018939610
    4         10.149417378000         0.000013525225
    5          4.016032241400         0.000021110648
    6          1.123449615800        -0.000119837699
    7          0.535006628200        -0.000260871644
    8          0.171274496600         0.000694855137
    9          0.080452897900         0.003582036748
   10          0.033669872200        -0.001932535624
   11          7.406473731500        -0.017155984861
   12          5.902626860300         0.034841963568
   13          1.298475675000        -0.108752229540
   14          7.406473731500         0.000470851911
   15          5.902626860300        -0.000956249686
   16          1.298475675000         0.002984742382
   17          7.406473731500         0.016488393626
   18          5.902626860300        -0.033486157436
   19          1.298475675000         0.104520351525
   20          7.406473731500        -0.031866132172
   21          5.902626860300         0.064716693633
   22          1.298475675000        -0.202000231915
   23          7.406473731500         0.006118745828
   24          5.902626860300        -0.012426515933
   25          1.298475675000         0.038786887268
 S 10
    1         22.106487883000         5.168531733802
    2         18.958062620000       -12.138934781528
    3         13.128699049000        16.690431636521
    4         10.149417378000        -9.214259952483
    5          4.016032241400        -1.957036238656
    6          1.123449615800         2.362154397577
    7          0.535006628200        -1.908070898977
    8          0.171274496600         1.074501268768
    9          0.080452897900        -0.680169024113
   10          0.033669872200         0.186499099201
 S 10
    1         22.106487883000         5.771393236233
    2         18.958062620000       -13.554829437342
    3         13.128699049000        18.637216373625
    4         10.149417378000       -10.289018294858
    5          4.016032241400         0.169268391087
    6          1.123449615800         0.315585422723
    7          0.535006628200        -0.283521916591
    8          0.171274496600         0.168559893778
    9          0.080452897900        -0.108180064745
   10          0.033669872200         0.029889999515
 D 25
    1          7.406473731500         0.007825514926
    2          5.902626860300        -0.015892780750
    3          1.298475675000         0.049606140505
    4          7.406473731500        -0.006931760128
    5          5.902626860300         0.014077660700
    6          1.298475675000        -0.043940605840
    7          7.406473731500         0.017762309536
    8          5.902626860300        -0.036073343896
    9          1.298475675000         0.112595737264
   10          7.406473731500        -0.001753622348
   11          5.902626860300         0.003561418739
   12          1.298475675000        -0.011116257196
   13          7.406473731500        -0.034522575496
   14          5.902626860300         0.070111644857
   15          1.298475675000        -0.218839494510
   16          0.571535085400         0.085749412454
   17          0.571535085400        -0.075955942053
   18          0.571535085400         0.194633531594
   19          0.571535085400        -0.019215615518
   20          0.571535085400        -0.378287000058
   21          0.238455266100         0.074024145020
   22          0.238455266100        -0.065569821516
   23          0.238455266100         0.168019585863
   24          0.238455266100        -0.016588096280
   25          0.238455266100        -0.326560508698
 P 25
    1         17.000000000000         0.001948732283
    2         12.431973432000        -0.005619643776
    3          5.158621765800         0.015149662151
    4          1.280145481200        -0.026569006288
    5         17.000000000000        -0.003701825843
    6         12.431973432000         0.010675115681
    7          5.158621765800        -0.028778407038
    8          1.280145481200         0.050470675183
    9         17.000000000000        -0.000148757278
   10         12.431973432000         0.000428977813
   11          5.158621765800        -0.001156455676
   12          1.280145481200         0.002028155996
   13          0.628567909000        -0.040145634746
   14          0.628567909000         0.076260936117
   15          0.628567909000         0.003064533500
   16          0.293804235500        -0.015920222500
   17          0.293804235500         0.030242169010
   18          0.293804235500         0.001215276716
   19          0.100000000000         0.138363395341
   20          0.100000000000        -0.262836099612
   21          0.100000000000        -0.010562026553
   22          0.041700000000        -0.161507668250
   23          0.041700000000         0.306801126669
   24          0.041700000000         0.012328754121
   25          0.020637836700         0.537413307349
 P 25
    1         17.000000000000         0.003074269667
    2         12.431973432000        -0.008865404729
    3          5.158621765800         0.023899715325
    4          1.280145481200        -0.041914577396
    5         17.000000000000        -0.005839904979
    6         12.431973432000         0.016840787186
    7          5.158621765800        -0.045400072744
    8          1.280145481200         0.079621235523
    9         17.000000000000        -0.000234675616
   10         12.431973432000         0.000676744247
   11          5.158621765800        -0.001824394413
   12          1.280145481200         0.003199566179
   13          0.628567909000        -0.086993190955
   14          0.628567909000         0.165252897115
   15          0.628567909000         0.006640660336
   16          0.293804235500         0.067295984206
   17          0.293804235500        -0.127835940170
   18          0.293804235500        -0.005137066110
   19          0.100000000000        -0.144722494095
   20          0.100000000000         0.274915900477
   21          0.100000000000         0.011047449986
   22          0.041700000000         1.078789516129
   23          0.041700000000        -2.049276396928
   24          0.041700000000        -0.082349833034
   25          0.020637836700        -0.865657361012
 D 25
    1         22.106487883000         0.000000133594
    2         18.958062620000        -0.000000365869
    3         13.128699049000         0.000000726415
    4         10.149417378000        -0.000000518750
    5          4.016032241400        -0.000000897105
    6          1.123449615800         0.000014670614
    7          0.535006628200        -0.000065821732
    8          0.171274496600         0.000786364300
    9          0.080452897900        -0.002662979304
   10          0.033669872200         0.002973223400
   11          7.406473731500        -0.011006778786
   12          5.902626860300         0.022353586144
   13          1.298475675000        -0.069772253985
   14          7.406473731500        -0.001278620520
   15          5.902626860300         0.002596741018
   16          1.298475675000        -0.008105208383
   17          7.406473731500         0.010145174653
   18          5.902626860300        -0.020603760641
   19          1.298475675000         0.064310523209
   20          7.406473731500        -0.018240002706
   21          5.902626860300         0.037043487444
   22          1.298475675000        -0.115623846563
   23          7.406473731500         0.003908085751
   24          5.902626860300        -0.007936902630
   25          1.298475675000         0.024773456151
 P 25
    1         17.000000000000        -0.008636113039
    2         12.431973432000         0.024904333605
    3          5.158621765800        -0.067138106125
    4          1.280145481200         0.117744722359
    5         17.000000000000        -0.004649890282
    6         12.431973432000         0.013409090212
    7          5.158621765800        -0.036148765751
    8          1.280145481200         0.063396581056
    9         17.000000000000         0.002578779633
   10         12.431973432000        -0.007436538636
   11          5.158621765800         0.020047720533
   12          1.280145481200        -0.035159068736
   13          0.628567909000         0.122856361132
   14          0.628567909000         0.066148809906
   15          0.628567909000        -0.036685425547
   16          0.293804235500         0.401960159717
   17          0.293804235500         0.216424985649
   18          0.293804235500        -0.120026992304
   19          0.100000000000        -2.265650159883
   20          0.100000000000        -1.219880357506
   21          0.100000000000         0.676532655616
   22          0.041700000000         2.708851223580
   23          0.041700000000         1.458510434472
   24          0.041700000000        -0.808874355101
   25          0.020637836700        -1.189757058632
 P 25
    1         17.000000000000        -0.023467082507
    2         12.431973432000         0.067673043282
    3          5.158621765800        -0.182435717160
    4          1.280145481200         0.319950086548
    5         17.000000000000        -0.012635241118
    6         12.431973432000         0.036436792634
    7          5.158621765800        -0.098227773910
    8          1.280145481200         0.172268814754
    9         17.000000000000         0.007007369539
   10         12.431973432000        -0.020207455355
   11          5.158621765800         0.054476072465
   12          1.280145481200        -0.095538441547
   13          0.628567909000         1.295633968942
   14          0.628567909000         0.697600461976
   15          0.628567909000        -0.386881752539
   16          0.293804235500        -2.692810919226
   17          0.293804235500        -1.449874105107
   18          0.293804235500         0.804084666395
   19          0.100000000000         2.250142742058
   20          0.100000000000         1.211530921541
   21          0.100000000000        -0.671902086838
   22          0.041700000000        -1.548269339168
   23          0.041700000000        -0.833625415941
   24          0.041700000000         0.462319736668
   25          0.020637836700         0.592489858801
 D 25
    1          7.406473731500        -0.005923894546
    2          5.902626860300         0.012030793898
    3          1.298475675000        -0.037551719981
    4          7.406473731500        -0.003091137258
    5          5.902626860300         0.006277767939
    6          1.298475675000        -0.019594798629
    7          7.406473731500        -0.012685827114
    8          5.902626860300         0.025763553053
    9          1.298475675000        -0.080415784546
   10          7.406473731500        -0.004765834306
   11          5.902626860300         0.009678897865
   12          1.298475675000        -0.030210746312
   13          7.406473731500        -0.007007084993
   14          5.902626860300         0.014230637415
   15          1.298475675000        -0.044418092100
   16          0.571535085400        -0.455766558992
   17          0.571535085400        -0.237822766831
   18          0.571535085400        -0.976009232852
   19          0.571535085400        -0.366668900860
   20          0.571535085400        -0.539103961246
   21          0.238455266100         0.691309452959
   22          0.238455266100         0.360731000543
   23          0.238455266100         1.480416664043
   24          0.238455266100         0.556165590190
   25          0.238455266100         0.817716125030
 D 25
    1          7.406473731500        -0.113788085240
    2          5.902626860300         0.231091386043
    3          1.298475675000        -0.721305600669
    4          7.406473731500        -0.059375565880
    5          5.902626860300         0.120585400373
    6          1.298475675000        -0.376383240144
    7          7.406473731500        -0.243673475958
    8          5.902626860300         0.494874671479
    9          1.298475675000        -1.544652435035
   10          7.406473731500        -0.091543688937
   11          5.902626860300         0.185915405075
   12          1.298475675000        -0.580297800049
   13          7.406473731500        -0.134594358191
   14          5.902626860300         0.273346692868
   15          1.298475675000        -0.853197100359
   16          0.571535085400         0.882992648264
   17          0.571535085400         0.460752881536
   18          0.571535085400         1.890899977753
   19          0.571535085400         0.710376698547
   20          0.571535085400         1.044448797344
   21          0.238455266100        -0.484368548819
   22          0.238455266100        -0.252747522907
   23          0.238455266100        -1.037259460753
   24          0.238455266100        -0.389679496502
   25          0.238455266100        -0.572935855446
 P 25
    1         17.000000000000        -0.205679813800
    2         12.431973432000         0.593127796656
    3          5.158621765800        -1.598977816029
    4          1.280145481200         2.804237561545
    5         17.000000000000        -0.110742941753
    6         12.431973432000         0.319354222584
    7          5.158621765800        -0.860927982545
    8          1.280145481200         1.509868718775
    9         17.000000000000         0.061416862142
   10         12.431973432000        -0.177110468191
   11          5.158621765800         0.477461537329
   12          1.280145481200        -0.837357193920
   13          0.628567909000        -3.704635209610
   14          0.628567909000        -1.994664394404
   15          0.628567909000         1.106219739068
   16          0.293804235500         2.353956533875
   17          0.293804235500         1.267426620552
   18          0.293804235500        -0.702901374993
   19          0.100000000000        -1.161558909461
   20          0.100000000000        -0.625411158619
   21          0.100000000000         0.346846402151
   22          0.041700000000         0.755805362298
   23          0.041700000000         0.406943723194
   24          0.041700000000        -0.225686677193
   25          0.020637836700        -0.295066661961
 end
  // -----------------------------------------------
  // The basis set
  // -----------------------------------------------
  BAS[ATNO] = new BFNGauss[NSH];
  // Basis function   1 L = s
  InitBFNGauss(BAS[ATNO][  0]);
  BAS[ATNO][  0].l  = 0;
  BAS[ATNO][  0].ng = 10;
  BAS[ATNO][  0].a[  0] =        22.106487883000;     BAS[ATNO][  0].d[  0] =         0.647885571928;
  BAS[ATNO][  0].a[  1] =        18.958062620000;     BAS[ATNO][  0].d[  1] =        -1.521639240811;
  BAS[ATNO][  0].a[  2] =        13.128699049000;     BAS[ATNO][  0].d[  2] =         2.092178282632;
  BAS[ATNO][  0].a[  3] =        10.149417378000;     BAS[ATNO][  0].d[  3] =        -1.155025524980;
  BAS[ATNO][  0].a[  4] =         4.016032241400;     BAS[ATNO][  0].d[  4] =        -0.655205055229;
  BAS[ATNO][  0].a[  5] =         1.123449615800;     BAS[ATNO][  0].d[  5] =         0.798146740620;
  BAS[ATNO][  0].a[  6] =         0.535006628200;     BAS[ATNO][  0].d[  6] =         0.542302695981;
  BAS[ATNO][  0].a[  7] =         0.171274496600;     BAS[ATNO][  0].d[  7] =         0.036174072748;
  BAS[ATNO][  0].a[  8] =         0.080452897900;     BAS[ATNO][  0].d[  8] =        -0.007990567455;
  BAS[ATNO][  0].a[  9] =         0.033669872200;     BAS[ATNO][  0].d[  9] =         0.001638820926;

FINAL SINGLE POINT ENERGY       -66.307829397188

DIPOLE MOMENT
-------------
                                X             Y             Z
Electronic contribution:      0.00000       0.00000      -0.00000
Nuclear contribution   :      0.00000       0.00000       0.00000
                        -----------------------------------------
Total Dipole Moment    :      0.00000       0.00000      -0.00000
                        -----------------------------------------
Magnitude (a.u.)       :      0.00000
Magnitude (Debye)      :      0.00000

Rotational constants in cm-1:     0.000000     0.000000     0.000000
Rotational constants in MHz :     0.000000     0.000000     0.000000

                             ****ORCA TERMINATED NORMALLY****
TOTAL RUN TIME: 0 days 0 hours 0 minutes 5 seconds 38 msec
