                         Program Version 4.2.0 -  RELEASE  -
|  1> #
|  2> # 75_Re CCSD(T)/Def2-QZVPPD
|  3> #
|  4> ! CCSD(T) Def2-QZVPPD tightscf slowconv
|  5>
|  6> *xyz 0 6
|  7>  Re 0.0 0.0 0.0
|  8> *
|  9>
| 10> %maxcore 5000
| 11>
| 12> %pal
| 13> nprocs 24
| 14> end
| 15>
| 16> %method
| 17> NewNCore Re 60 end
| 18> end
| 19>
| 20>
| 21>                          ****END OF INPUT****

CARTESIAN COORDINATES (ANGSTROEM)
---------------------------------
  Re     0.000000    0.000000    0.000000

 Total Charge           Charge          ....    0
 Multiplicity           Mult            ....    6
 Number of Electrons    NEL             ....   15
 Basis Dimension        Dim             ....   91

ORBITAL ENERGIES
----------------
                 SPIN UP ORBITALS
  NO   OCC          E(Eh)            E(eV)
   0   1.0000      -3.790741      -103.1513
   1   1.0000      -2.231288       -60.7164
   2   1.0000      -2.231288       -60.7164
   3   1.0000      -2.231288       -60.7164
   4   1.0000      -0.442738       -12.0475
   5   1.0000      -0.442738       -12.0475
   6   1.0000      -0.442738       -12.0475
   7   1.0000      -0.442738       -12.0475
   8   1.0000      -0.442738       -12.0475
   9   1.0000      -0.325642        -8.8612
  10   0.0000       0.023347         0.6353
  11   0.0000       0.023347         0.6353
  12   0.0000       0.023347         0.6353
  13   0.0000       0.093916         2.5556
  14   0.0000       0.093916         2.5556

                 SPIN DOWN ORBITALS
  NO   OCC          E(Eh)            E(eV)
   0   1.0000      -3.572869       -97.2227
   1   1.0000      -1.914600       -52.0989
   2   1.0000      -1.914600       -52.0989
   3   1.0000      -1.914600       -52.0989
   4   1.0000      -0.222862        -6.0644
   5   0.0000       0.028757         0.7825
   6   0.0000       0.028757         0.7825
   7   0.0000       0.028757         0.7825
   8   0.0000       0.112803         3.0695
   9   0.0000       0.112803         3.0695

E(0)                                       ...    -77.535321821
E(0)                                       ...    -77.535321821
E(CORR)                                    ...     -0.414960834
E(TOT)                                     ...    -77.950282655
E(CCSD(T))                                 ...    -77.966093266

MULLIKEN ATOMIC CHARGES AND SPIN DENSITIES
------------------------------------------
   0 Re:   -0.000000    5.000000
Sum of atomic charges       :   -0.0000000

LOEWDIN ATOMIC CHARGES AND SPIN DENSITIES
-----------------------------------------
   0 Re:   -0.000000    5.000000

FINAL SINGLE POINT ENERGY       -77.966093266179

DIPOLE MOMENT
-------------
                                X             Y             Z
Electronic contribution:     -0.00000      -0.00000       0.00000
Nuclear contribution   :      0.00000       0.00000       0.00000
                        -----------------------------------------
Total Dipole Moment    :     -0.00000      -0.00000       0.00000
                        -----------------------------------------
Magnitude (a.u.)       :      0.00000
Magnitude (Debye)      :      0.00000

Rotational constants in cm-1:     0.000000     0.000000     0.000000
Rotational constants in MHz :     0.000000     0.000000     0.000000

                             ****ORCA TERMINATED NORMALLY****
TOTAL RUN TIME: 0 days 0 hours 0 minutes 32 seconds 100 msec
