                         Program Version 4.2.0 -  RELEASE  -
|  1> # input to generate an atomic fitting density for Re
|  2> # this file is use internally by ORCA
|  3> #
|  4> # atomic ground state (S=6): 1s2 2s2 2p6 3s2 3p6 4s2 3d10 4p6 5s2 4d10 5p6 6s2 4f14 5d5
|  5> #
|  6> ! RHF AllowRHF def2-SVP def2/J  NoMulliken NoLoewdin NoMayer NoPrintMOs
|  7>
|  8> %output print[p_atomdensfit] 2 end
|  9>
| 10> %scf
| 11>   guess hcore
| 12>   maxiter 1000
| 13>   maxdisk 500000
| 14>   SCFMode Conventional
| 15>   lshift 0.500000
| 16>   hftyp rohf
| 17>   rohf_case sahf
| 18>   rohf_numop   2
| 19>   rohf_norb[1] 5
| 20>   rohf_nel[1]  5
| 21> end
| 22>
| 23> %basis
| 24>   NewECP 75
| 25>     N_core 60
| 26>     lmax f
| 27>     s 3
| 28>       1      14.0993051000   1038.9515723000  2
| 29>       2       7.0496525000     29.5617383000  2
| 30>       3       2.5086506000    -16.4498523000  2
| 31>     p 3
| 32>       1      10.1077169000    339.5435096000  2
| 33>       2       5.0538583000     24.9136965000  2
| 34>       3       2.5086506000    -16.4498523000  2
| 35>     d 3
| 36>       1       6.8486179000    111.6996527000  2
| 37>       2       3.4243090000     12.6243293000  2
| 38>       3       2.5086506000    -16.4498523000  2
| 39>     f 1
| 40>       1       2.5086506000     16.4498523000  2
| 41>   end
| 42>   NewGTO 75
| 43>     s 4
| 44>      1      24.0000000000      2.6150378908
| 45>      2      18.2042627490    -13.1482597401
| 46>      3      14.0481924870     18.4275193491
| 47>      4       9.5166786954     -7.3333962699
| 48>     s 1
| 49>      1       4.1714667981      1.0000000000
| 50>     s 1
| 51>      1       1.1944213976      1.0000000000
| 52>     s 1
| 53>      1       0.5675544780      1.0000000000
| 54>     s 1
| 55>      1       0.1753385487      1.0000000000
| 56>     s 1
| 57>      1       0.0820142505      1.0000000000
| 58>     s 1
| 59>      1       0.0346078927      1.0000000000
| 60>     p 4
| 61>      1      18.0000000000     -0.0654422411
| 62>      2      12.3186062500      0.2426593672
| 63>      3       5.3719234505     -0.7127910952
| 64>      4       1.3506646748      1.2524914706
| 65>     p 1
| 66>      1       0.6621281681      1.0000000000
| 67>     p 1
| 68>      1       0.3107138519      1.0000000000
| 69>     p 1
| 70>      1       0.1080000000      1.0000000000
| 71>     p 1
| 72>      1       0.0450000000      1.0000000000
| 73>     d 3
| 74>      1       7.7352877672      0.1637238665
| 75>      2       6.0949443610     -0.3458277141
| 76>      3       1.3871105497      1.0779055520
| 77>     d 1
| 78>      1       0.6232402785      1.0000000000
| 79>     d 1
| 80>      1       0.2651732855      1.0000000000
| 81>     d 1
| 82>      1       0.1032109685      1.0000000000
| 83>     p 1
| 84>      1       0.0219302517      1.0000000000
| 85>   end
| 86>   NewAuxGTO 75
| 87>     S 1
| 88>      1 1310.72 1.0
| 89>     S 1
| 90>      1  655.36 1.0
| 91>     S 1
| 92>      1  327.68 1.0
| 93>     S 1
| 94>      1  163.84 1.0
| 95>     S 1
| 96>      1   81.82 1.0
| 97>     S 1
| 98>      1   40.96 1.0
| 99>     S 1
|100>      1   20.48 1.0
|101>     S 1
|102>      1   10.24 1.0
|103>     S 1
|104>      1    5.12 1.0
|105>     S 1
|106>      1    2.56 1.0
|107>     S 1
|108>      1    1.28 1.0
|109>     S 1
|110>      1    0.64 1.0
|111>     S 1
|112>      1    0.32 1.0
|113>     S 1
|114>      1    0.16 1.0
|115>     S 1
|116>      1    0.08 1.0
|117>     S 1
|118>      1    0.04 1.0
|119>     S 1
|120>      1    0.02 1.0
|121>     S 1
|122>      1    0.01 1.0
|123>   end
|124> end
|125>
|126> * xyz 0 6
|127> 75  0.0 0.0 0.0
|128> *
|129>
|130>
|131>                          ****END OF INPUT****

CARTESIAN COORDINATES (ANGSTROEM)
---------------------------------
  Re     0.000000    0.000000    0.000000

 Total Charge           Charge          ....    0
 Multiplicity           Mult            ....    6
 Number of Electrons    NEL             ....   15
 Basis Dimension        Dim             ....   45

ORBITAL ENERGIES
----------------

  NO   OCC          E(Eh)            E(eV)
   0   2.0000      -3.582540       -97.4859
   1   2.0000      -1.990134       -54.1543
   2   2.0000      -1.987609       -54.0856
   3   2.0000      -1.979356       -53.8610
   4   2.0000      -0.259205        -7.0533
   5   1.0000      -0.363038        -9.8788
   6   1.0000      -0.362442        -9.8626
   7   1.0000      -0.348282        -9.4772
   8   1.0000      -0.343696        -9.3525
   9   1.0000      -0.288207        -7.8425
  10   0.0000       0.026045         0.7087
  11   0.0000       0.027108         0.7376
  12   0.0000       0.030269         0.8236
  13   0.0000       0.095011         2.5854
  14   0.0000       0.096937         2.6378

CleanUpVectors: The p-vectors have cracked symmetry
CleanUpVectors: The p-vectors have cracked symmetry
CleanUpVectors: The p-vectors have cracked symmetry
CleanUpVectors: The d-vectors have cracked symmetry at i=4
CleanUpVectors: The d-vectors have cracked symmetry at i=6
CleanUpVectors: The d-vectors have cracked symmetry at i=7
CleanUpVectors: The d-vectors have cracked symmetry at i=8
CleanUpVectors: The d-vectors have cracked symmetry at i=9
CleanUpVectors: The p-vectors have cracked symmetry
CleanUpVectors: The p-vectors have cracked symmetry
CleanUpVectors: The p-vectors have cracked symmetry
CleanUpVectors: The p-vectors have cracked symmetry
CleanUpVectors: The p-vectors have cracked symmetry
CleanUpVectors: The p-vectors have cracked symmetry
CleanUpVectors: The d-vectors have cracked symmetry at i=17
CleanUpVectors: The d-vectors have cracked symmetry at i=18
CleanUpVectors: The d-vectors have cracked symmetry at i=19
CleanUpVectors: The d-vectors have cracked symmetry at i=20
CleanUpVectors: The d-vectors have cracked symmetry at i=21
CleanUpVectors: The p-vectors have cracked symmetry
CleanUpVectors: The p-vectors have cracked symmetry
CleanUpVectors: The p-vectors have cracked symmetry
CleanUpVectors: The p-vectors have cracked symmetry
CleanUpVectors: The p-vectors have cracked symmetry
CleanUpVectors: The p-vectors have cracked symmetry
CleanUpVectors: The d-vectors have cracked symmetry at i=29
CleanUpVectors: The d-vectors have cracked symmetry at i=30
CleanUpVectors: The d-vectors have cracked symmetry at i=31
CleanUpVectors: The d-vectors have cracked symmetry at i=32
CleanUpVectors: The d-vectors have cracked symmetry at i=33
CleanUpVectors: The d-vectors have cracked symmetry at i=35
CleanUpVectors: The d-vectors have cracked symmetry at i=36
CleanUpVectors: The d-vectors have cracked symmetry at i=37
CleanUpVectors: The d-vectors have cracked symmetry at i=38
CleanUpVectors: The d-vectors have cracked symmetry at i=39
CleanUpVectors: The p-vectors have cracked symmetry
CleanUpVectors: The p-vectors have cracked symmetry
CleanUpVectors: The p-vectors have cracked symmetry
--------------------------
ATOM BASIS FOR ELEMENT Re
--------------------------
 NewGTO Re
 S 10
    1         24.000000000000         0.262704749354
    2         18.204262749000        -1.320864333023
    3         14.048192487000         1.851214802221
    4          9.516678695400        -0.736707500788
    5          4.171466798100        -0.664593909797
    6          1.194421397600         0.815100356787
    7          0.567554478000         0.540501225235
    8          0.175338548700         0.040190164872
    9          0.082014250500        -0.014246611365
   10          0.034607892700         0.001068263293
 P 25
    1         18.000000000000        -0.018503509876
    2         12.318606250000         0.068610883764
    3          5.371923450500        -0.201538591092
    4          1.350664674800         0.354136531783
    5         18.000000000000         0.000994133573
    6         12.318606250000        -0.003686240260
    7          5.371923450500         0.010828014852
    8          1.350664674800        -0.019026607287
    9         18.000000000000         0.019326209658
   10         12.318606250000        -0.071661448738
   11          5.371923450500         0.210499364269
   12          1.350664674800        -0.369882087598
   13          0.662128168100         0.336940439244
   14          0.662128168100        -0.018102717006
   15          0.662128168100        -0.351921425435
   16          0.310713851900         0.112442028042
   17          0.310713851900        -0.006041145485
   18          0.310713851900        -0.117441405597
   19          0.108000000000         0.006243540445
   20          0.108000000000        -0.000335445179
   21          0.108000000000        -0.006521139636
   22          0.045000000000         0.000030806791
   23          0.045000000000        -0.000032176517
   24          0.021930251700        -0.000064287706
   25          0.021930251700         0.000067146055
 D 25
    1         24.000000000000        -0.000057935363
    2         18.204262749000         0.000384036206
    3         14.048192487000        -0.000697466603
    4          9.516678695400         0.000409729032
    5          4.171466798100         0.000921867779
    6          1.194421397600        -0.005453341773
    7          0.567554478000        -0.008269698945
    8          0.175338548700         0.036228519774
    9          0.082014250500         0.089808378217
   10          0.034607892700        -0.044933262698
   11          7.735287767200         0.018428304450
   12          6.094944361000        -0.038925408609
   13          1.387110549700         0.121326060181
   14          7.735287767200        -0.005104501328
   15          6.094944361000         0.010782044570
   16          1.387110549700        -0.033606403508
   17          7.735287767200         0.003696033025
   18          6.094944361000        -0.007806990390
   19          1.387110549700         0.024333498857
   20          7.735287767200        -0.031963189838
   21          6.094944361000         0.067514633713
   22          1.387110549700        -0.210435414958
   23          7.735287767200        -0.001785610322
   24          6.094944361000         0.003771676965
   25          1.387110549700        -0.011755887037
 S 10
    1         24.000000000000         0.419661204837
    2         18.204262749000        -2.110032341576
    3         14.048192487000         2.957247770443
    4          9.516678695400        -1.176863220605
    5          4.171466798100        -1.348805907357
    6          1.194421397600         5.557180671585
    7          0.567554478000        -6.589916826075
    8          0.175338548700         4.653674547820
    9          0.082014250500        -3.038368507521
   10          0.034607892700         0.831575486727
 S 10
    1         24.000000000000         2.078972319054
    2         18.204262749000       -10.452952953214
    3         14.048192487000        14.649999057527
    4          9.516678695400        -5.830098257243
    5          4.171466798100        -1.928311155311
    6          1.194421397600         2.394805645371
    7          0.567554478000        -1.873472116907
    8          0.175338548700         1.028664479147
    9          0.082014250500        -0.666324351279
   10          0.034607892700         0.186855395366
 S 10
    1         24.000000000000         2.288657236435
    2         18.204262749000       -11.507236628032
    3         14.048192487000        16.127596336648
    4          9.516678695400        -6.418121320459
    5          4.171466798100         0.240175965197
    6          1.194421397600         0.321507844488
    7          0.567554478000        -0.282240842545
    8          0.175338548700         0.164286923032
    9          0.082014250500        -0.107941377511
   10          0.034607892700         0.030504638265
 D 25
    1          7.735287767200        -0.033192261587
    2          6.094944361000         0.070110755357
    3          1.387110549700        -0.218527230101
    4          7.735287767200         0.002953874802
    5          6.094944361000        -0.006239357721
    6          1.387110549700         0.019447366575
    7          7.735287767200         0.001568838602
    8          6.094944361000        -0.003313798282
    9          1.387110549700         0.010328731391
   10          7.735287767200        -0.019370331681
   11          6.094944361000         0.040915217005
   12          1.387110549700        -0.127528066065
   13          7.735287767200        -0.001018750665
   14          6.094944361000         0.002151868393
   15          1.387110549700        -0.006707128416
   16          0.623240278500        -0.360527797367
   17          0.623240278500         0.032084405375
   18          0.623240278500         0.017040415404
   19          0.623240278500        -0.210396721451
   20          0.623240278500        -0.011065468745
   21          0.265173285500        -0.324295108467
   22          0.265173285500         0.028859954203
   23          0.265173285500         0.015327870422
   24          0.265173285500        -0.189252057962
   25          0.265173285500        -0.009953400024
 P 25
    1         18.000000000000         0.000158418684
    2         12.318606250000        -0.000587415361
    3          5.371923450500         0.001725482280
    4          1.350664674800        -0.003031956843
    5         18.000000000000         0.002030429834
    6         12.318606250000        -0.007528819467
    7          5.371923450500         0.022115261962
    8          1.350664674800        -0.038860161363
    9         18.000000000000         0.000047230328
   10         12.318606250000        -0.000175129722
   11          5.371923450500         0.000514428550
   12          1.350664674800        -0.000903935775
   13          0.662128168100        -0.003617279039
   14          0.662128168100        -0.046362153043
   15          0.662128168100        -0.001078441449
   16          0.310713851900        -0.004163248457
   17          0.310713851900        -0.053359765733
   18          0.310713851900        -0.001241214639
   19          0.108000000000         0.021536023748
   20          0.108000000000         0.276024165720
   21          0.108000000000         0.006420666032
   22          0.045000000000        -0.048140763600
   23          0.045000000000        -0.617013347733
   24          0.045000000000        -0.014352499293
   25          0.021930251700         0.108000141595
 P 25
    1         18.000000000000         0.000363470924
    2         12.318606250000        -0.001347747614
    3          5.371923450500         0.003958893115
    4          1.350664674800        -0.006956427897
    5         18.000000000000         0.004658555341
    6         12.318606250000        -0.017273890260
    7          5.371923450500         0.050740572262
    8          1.350664674800        -0.089159550953
    9         18.000000000000         0.000108363802
   10         12.318606250000        -0.000401812211
   11          5.371923450500         0.001180288936
   12          1.350664674800        -0.002073962252
   13          0.662128168100        -0.013974711513
   14          0.662128168100        -0.179111897893
   15          0.662128168100        -0.004166365926
   16          0.310713851900         0.012485507076
   17          0.310713851900         0.160024975571
   18          0.310713851900         0.003722380330
   19          0.108000000000        -0.035141183421
   20          0.108000000000        -0.450399570028
   21          0.108000000000        -0.010476855216
   22          0.045000000000         0.188099691299
   23          0.045000000000         2.410847098342
   24          0.045000000000         0.056079307526
   25          0.021930251700        -0.132563572364
 D 25
    1         24.000000000000        -0.000028152776
    2         18.204262749000         0.000186616339
    3         14.048192487000        -0.000338922898
    4          9.516678695400         0.000199101362
    5          4.171466798100         0.000440493918
    6          1.194421397600        -0.001403147876
    7          0.567554478000        -0.014490958891
    8          0.175338548700         0.142832413320
    9          0.082014250500        -0.322701975397
   10          0.034607892700         0.315871522687
   11          7.735287767200         0.013813151652
   12          6.094944361000        -0.029176996381
   13          1.387110549700         0.090941370827
   14          7.735287767200        -0.003842877410
   15          6.094944361000         0.008117164214
   16          1.387110549700        -0.025300275300
   17          7.735287767200         0.003750456364
   18          6.094944361000        -0.007921946744
   19          1.387110549700         0.024691804705
   20          7.735287767200        -0.023877732137
   21          6.094944361000         0.050436028047
   22          1.387110549700        -0.157203348478
   23          7.735287767200        -0.001411208613
   24          6.094944361000         0.002980842435
   25          1.387110549700        -0.009290945980
 P 25
    1         18.000000000000         0.005467627500
    2         12.318606250000        -0.020273924105
    3          5.371923450500         0.059552914578
    4          1.350664674800        -0.104644289275
    5         18.000000000000        -0.000549023205
    6         12.318606250000         0.002035774160
    7          5.371923450500        -0.005979912128
    8          1.350664674800         0.010507691504
    9         18.000000000000         0.005263116962
   10         12.318606250000        -0.019515600475
   11          5.371923450500         0.057325403904
   12          1.350664674800        -0.100730185775
   13          0.662128168100        -0.090769575045
   14          0.662128168100         0.009114483926
   15          0.662128168100        -0.087374439832
   16          0.310713851900        -0.387952711614
   17          0.310713851900         0.038955660554
   18          0.310713851900        -0.373441771010
   19          0.108000000000         1.944112655097
   20          0.108000000000        -0.195215010499
   21          0.108000000000         1.871395278927
   22          0.045000000000        -2.178078027649
   23          0.045000000000         0.218708274915
   24          0.045000000000        -2.096609436389
   25          0.021930251700         0.928613538507
 P 25
    1         18.000000000000         0.014519200749
    2         12.318606250000        -0.053837093698
    3          5.371923450500         0.158141848890
    4          1.350664674800        -0.277881301005
    5         18.000000000000        -0.001457922677
    6         12.318606250000         0.005405966976
    7          5.371923450500        -0.015879564700
    8          1.350664674800         0.027903013208
    9         18.000000000000         0.013976126158
   10         12.318606250000        -0.051823376957
   11          5.371923450500         0.152226728539
   12          1.350664674800        -0.267487459336
   13          0.662128168100        -1.104186482086
   14          0.662128168100         0.110875146625
   15          0.662128168100        -1.062885612156
   16          0.310713851900         2.316918374413
   17          0.310713851900        -0.232649709672
   18          0.310713851900         2.230256613947
   19          0.108000000000        -1.911803283099
   20          0.108000000000         0.191970715790
   21          0.108000000000        -1.840294403025
   22          0.045000000000         1.273537451378
   23          0.045000000000        -0.127880257497
   24          0.045000000000         1.225902196389
   25          0.021930251700        -0.477354280676
 D 25
    1          7.735287767200        -0.012567450683
    2          6.094944361000         0.026545749467
    3          1.387110549700        -0.082740074222
    4          7.735287767200         0.001118413574
    5          6.094944361000        -0.002362382577
    6          1.387110549700         0.007363277122
    7          7.735287767200         0.000594002964
    8          6.094944361000        -0.001254689934
    9          1.387110549700         0.003910725460
   10          7.735287767200        -0.007334109714
   11          6.094944361000         0.015491561808
   12          1.387110549700        -0.048285431736
   13          7.735287767200        -0.000385725411
   14          6.094944361000         0.000814753157
   15          1.387110549700        -0.002539492688
   16          0.623240278500        -1.153617420449
   17          0.623240278500         0.102663731439
   18          0.623240278500         0.054525948396
   19          0.623240278500        -0.673227764520
   20          0.623240278500        -0.035407304522
   21          0.265173285500         1.724225341743
   22          0.265173285500        -0.153443771121
   23          0.265173285500        -0.081495841117
   24          0.265173285500         1.006222991933
   25          0.265173285500         0.052920639596
 D 25
    1          7.735287767200        -0.277667633991
    2          6.094944361000         0.586506812938
    3          1.387110549700        -1.828074859752
    4          7.735287767200         0.024710441174
    5          6.094944361000        -0.052194927767
    6          1.387110549700         0.162685638346
    7          7.735287767200         0.013124013946
    8          6.094944361000        -0.027721356939
    9          1.387110549700         0.086404308663
   10          7.735287767200        -0.162041208112
   11          6.094944361000         0.342273498602
   12          1.387110549700        -1.066827467559
   13          7.735287767200        -0.008522290232
   14          6.094944361000         0.018001310455
   15          1.387110549700        -0.056108032097
   16          0.623240278500         2.266146890162
   17          0.623240278500        -0.201670927996
   18          0.623240278500        -0.107109867153
   19          0.623240278500         1.322477433051
   20          0.623240278500         0.069553520618
   21          0.265173285500        -1.253542758180
   22          0.265173285500         0.111556374577
   23          0.265173285500         0.059248938752
   24          0.265173285500        -0.731542168010
   25          0.265173285500        -0.038474254452
 P 25
    1         18.000000000000         0.126477235292
    2         12.318606250000        -0.468976694033
    3          5.371923450500         1.377578847337
    4          1.350664674800        -2.420633153230
    5         18.000000000000        -0.012700012388
    6         12.318606250000         0.047091556123
    7          5.371923450500        -0.138327410356
    8          1.350664674800         0.243064065738
    9         18.000000000000         0.121746494796
   10         12.318606250000        -0.451435141728
   11          5.371923450500         1.326052040757
   12          1.350664674800        -2.330092058955
   13          0.662128168100         3.217146845460
   14          0.662128168100        -0.323044733685
   15          0.662128168100         3.096813041289
   16          0.310713851900        -2.075272764789
   17          0.310713851900         0.208385246253
   18          0.310713851900        -1.997649492220
   19          0.108000000000         1.027261276046
   20          0.108000000000        -0.103150823163
   21          0.108000000000         0.988837709090
   22          0.045000000000        -0.647987767932
   23          0.045000000000         0.065066671177
   24          0.045000000000        -0.623750505253
   25          0.021930251700         0.247902625844
 end
  // -----------------------------------------------
  // The basis set
  // -----------------------------------------------
  BAS[ATNO] = new BFNGauss[NSH];
  // Basis function   1 L = s
  InitBFNGauss(BAS[ATNO][  0]);
  BAS[ATNO][  0].l  = 0;
  BAS[ATNO][  0].ng = 10;
  BAS[ATNO][  0].a[  0] =        24.000000000000;     BAS[ATNO][  0].d[  0] =         0.262704749354;
  BAS[ATNO][  0].a[  1] =        18.204262749000;     BAS[ATNO][  0].d[  1] =        -1.320864333023;
  BAS[ATNO][  0].a[  2] =        14.048192487000;     BAS[ATNO][  0].d[  2] =         1.851214802221;
  BAS[ATNO][  0].a[  3] =         9.516678695400;     BAS[ATNO][  0].d[  3] =        -0.736707500788;
  BAS[ATNO][  0].a[  4] =         4.171466798100;     BAS[ATNO][  0].d[  4] =        -0.664593909797;
  BAS[ATNO][  0].a[  5] =         1.194421397600;     BAS[ATNO][  0].d[  5] =         0.815100356787;
  BAS[ATNO][  0].a[  6] =         0.567554478000;     BAS[ATNO][  0].d[  6] =         0.540501225235;
  BAS[ATNO][  0].a[  7] =         0.175338548700;     BAS[ATNO][  0].d[  7] =         0.040190164872;
  BAS[ATNO][  0].a[  8] =         0.082014250500;     BAS[ATNO][  0].d[  8] =        -0.014246611365;
  BAS[ATNO][  0].a[  9] =         0.034607892700;     BAS[ATNO][  0].d[  9] =         0.001068263293;

FINAL SINGLE POINT ENERGY       -77.461263714386

DIPOLE MOMENT
-------------
                                X             Y             Z
Electronic contribution:      0.00000      -0.00000       0.00000
Nuclear contribution   :      0.00000       0.00000       0.00000
                        -----------------------------------------
Total Dipole Moment    :      0.00000      -0.00000       0.00000
                        -----------------------------------------
Magnitude (a.u.)       :      0.00000
Magnitude (Debye)      :      0.00000

Rotational constants in cm-1:     0.000000     0.000000     0.000000
Rotational constants in MHz :     0.000000     0.000000     0.000000

                             ****ORCA TERMINATED NORMALLY****
TOTAL RUN TIME: 0 days 0 hours 0 minutes 1 seconds 794 msec
