                         Program Version 4.2.0 -  RELEASE  -
|  1> # input to generate an atomic fitting density for Os
|  2> # this file is use internally by ORCA
|  3> #
|  4> # atomic ground state (S=5): 1s2 2s2 2p6 3s2 3p6 4s2 3d10 4p6 5s2 4d10 5p6 6s2 4f14 5d6
|  5> #
|  6> ! RHF AllowRHF def2-SVP def2/J  NoMulliken NoLoewdin NoMayer NoPrintMOs
|  7>
|  8> %output print[p_atomdensfit] 2 end
|  9>
| 10> %scf
| 11>   guess hcore
| 12>   maxiter 1000
| 13>   maxdisk 500000
| 14>   SCFMode Conventional
| 15>   lshift 1.000000
| 16>   hftyp rohf
| 17>   rohf_case sahf
| 18>   rohf_numop   2
| 19>   rohf_norb[1] 5
| 20>   rohf_nel[1]  6
| 21> end
| 22>
| 23> %basis
| 24>   NewECP 76
| 25>     N_core 60
| 26>     lmax f
| 27>     s 3
| 28>       1      13.8757539000    885.4057191000  2
| 29>       2       6.9378769000     25.9670401000  2
| 30>       3       2.7670751000    -18.9094570000  2
| 31>     p 3
| 32>       1      10.1937926000    320.0839019000  2
| 33>       2       5.0968962000     26.1487649000  2
| 34>       3       2.7670751000    -18.9094570000  2
| 35>     d 3
| 36>       1       7.0992385000    115.0448431000  2
| 37>       2       3.5496192000     13.6225746000  2
| 38>       3       2.7670751000    -18.9094570000  2
| 39>     f 1
| 40>       1       2.7670751000     18.9094570000  2
| 41>   end
| 42>   NewGTO 76
| 43>     s 4
| 44>      1      24.0000000000      2.6088942959
| 45>      2      18.2042627490    -13.8312449390
| 46>      3      14.0481924870     20.3055796804
| 47>      4       9.5166786954     -8.8275147040
| 48>     s 1
| 49>      1       4.2529406042      1.0000000000
| 50>     s 1
| 51>      1       1.2999583502      1.0000000000
| 52>     s 1
| 53>      1       0.6175685013      1.0000000000
| 54>     s 1
| 55>      1       0.1878530547      1.0000000000
| 56>     s 1
| 57>      1       0.0878655240      1.0000000000
| 58>     s 1
| 59>      1       0.0370042429      1.0000000000
| 60>     p 4
| 61>      1      15.5000000000      0.3696785165
| 62>      2      14.0000000000     -0.5355179504
| 63>      3       5.5458290420      0.6871857809
| 64>      4       1.4139502215     -1.2522275443
| 65>     p 1
| 66>      1       0.6813668676      1.0000000000
| 67>     p 1
| 68>      1       0.3091145265      1.0000000000
| 69>     p 1
| 70>      1       0.0900000000      1.0000000000
| 71>     p 1
| 72>      1       0.0330000000      1.0000000000
| 73>     d 3
| 74>      1       8.5557226523      0.1082878205
| 75>      2       6.1927250845     -0.2957158143
| 76>      3       1.4916733698      1.0829950394
| 77>     d 1
| 78>      1       0.6742324151      1.0000000000
| 79>     d 1
| 80>      1       0.2863573708      1.0000000000
| 81>     d 1
| 82>      1       0.1107429271      1.0000000000
| 83>   end
| 84>   NewAuxGTO 76
| 85>     S 1
| 86>      1 1310.72 1.0
| 87>     S 1
| 88>      1  655.36 1.0
| 89>     S 1
| 90>      1  327.68 1.0
| 91>     S 1
| 92>      1  163.84 1.0
| 93>     S 1
| 94>      1   81.82 1.0
| 95>     S 1
| 96>      1   40.96 1.0
| 97>     S 1
| 98>      1   20.48 1.0
| 99>     S 1
|100>      1   10.24 1.0
|101>     S 1
|102>      1    5.12 1.0
|103>     S 1
|104>      1    2.56 1.0
|105>     S 1
|106>      1    1.28 1.0
|107>     S 1
|108>      1    0.64 1.0
|109>     S 1
|110>      1    0.32 1.0
|111>     S 1
|112>      1    0.16 1.0
|113>     S 1
|114>      1    0.08 1.0
|115>     S 1
|116>      1    0.04 1.0
|117>     S 1
|118>      1    0.02 1.0
|119>     S 1
|120>      1    0.01 1.0
|121>   end
|122> end
|123>
|124> * xyz 0 5
|125> 76  0.0 0.0 0.0
|126> *
|127>
|128>
|129>                          ****END OF INPUT****

CARTESIAN COORDINATES (ANGSTROEM)
---------------------------------
  Os     0.000000    0.000000    0.000000

 Total Charge           Charge          ....    0
 Multiplicity           Mult            ....    5
 Number of Electrons    NEL             ....   16
 Basis Dimension        Dim             ....   42

ORBITAL ENERGIES
----------------

  NO   OCC          E(Eh)            E(eV)
   0   2.0000      -3.896829      -106.0381
   1   2.0000      -2.179948       -59.3194
   2   2.0000      -2.173333       -59.1394
   3   2.0000      -2.169917       -59.0464
   4   2.0000      -0.323727        -8.8091
   5   1.2000      -0.388580       -10.5738
   6   1.2000      -0.384865       -10.4727
   7   1.2000      -0.377840       -10.2815
   8   1.2000      -0.363987        -9.9046
   9   1.2000      -0.291490        -7.9318
  10   0.0000       0.010339         0.2813
  11   0.0000       0.014117         0.3842
  12   0.0000       0.016036         0.4364
  13   0.0000       0.095263         2.5922
  14   0.0000       0.165165         4.4944

CleanUpVectors: The p-vectors have cracked symmetry
CleanUpVectors: The p-vectors have cracked symmetry
CleanUpVectors: The p-vectors have cracked symmetry
CleanUpVectors: The d-vectors have cracked symmetry at i=4
CleanUpVectors: The d-vectors have cracked symmetry at i=5
CleanUpVectors: The d-vectors have cracked symmetry at i=6
CleanUpVectors: The d-vectors have cracked symmetry at i=7
CleanUpVectors: The d-vectors have cracked symmetry at i=9
CleanUpVectors: The p-vectors have cracked symmetry
CleanUpVectors: The p-vectors have cracked symmetry
CleanUpVectors: The p-vectors have cracked symmetry
CleanUpVectors: The p-vectors have cracked symmetry
CleanUpVectors: The p-vectors have cracked symmetry
CleanUpVectors: The p-vectors have cracked symmetry
CleanUpVectors: The d-vectors have cracked symmetry at i=17
CleanUpVectors: The d-vectors have cracked symmetry at i=18
CleanUpVectors: The d-vectors have cracked symmetry at i=19
CleanUpVectors: The d-vectors have cracked symmetry at i=20
CleanUpVectors: The d-vectors have cracked symmetry at i=21
CleanUpVectors: The p-vectors have cracked symmetry
CleanUpVectors: The p-vectors have cracked symmetry
CleanUpVectors: The p-vectors have cracked symmetry
CleanUpVectors: The d-vectors have cracked symmetry at i=26
CleanUpVectors: The d-vectors have cracked symmetry at i=27
CleanUpVectors: The d-vectors have cracked symmetry at i=28
CleanUpVectors: The d-vectors have cracked symmetry at i=29
CleanUpVectors: The d-vectors have cracked symmetry at i=30
CleanUpVectors: The d-vectors have cracked symmetry at i=32
CleanUpVectors: The d-vectors have cracked symmetry at i=33
CleanUpVectors: The d-vectors have cracked symmetry at i=34
CleanUpVectors: The d-vectors have cracked symmetry at i=35
CleanUpVectors: The d-vectors have cracked symmetry at i=36
CleanUpVectors: The p-vectors have cracked symmetry
CleanUpVectors: The p-vectors have cracked symmetry
CleanUpVectors: The p-vectors have cracked symmetry
--------------------------
ATOM BASIS FOR ELEMENT Os
--------------------------
 NewGTO Os
 S 10
    1         24.000000000000         0.243572553859
    2         18.204262749000        -1.291317803922
    3         14.048192487000         1.895777037852
    4          9.516678695400        -0.824157691656
    5          4.252940604200        -0.657364465777
    6          1.299958350200         0.820848914091
    7          0.617568501300         0.556538699809
    8          0.187853054700         0.040797327101
    9          0.087865524000        -0.012182101763
   10          0.037004242900         0.001959746981
 P 24
    1         15.500000000000         0.043352761402
    2         14.000000000000        -0.062801003829
    3          5.545829042000         0.080587320790
    4          1.413950221500        -0.146850627034
    5         15.500000000000        -0.122767211807
    6         14.000000000000         0.177841131439
    7          5.545829042000        -0.228208777489
    8          1.413950221500         0.415854525756
    9         15.500000000000        -0.092171187579
   10         14.000000000000         0.133519594067
   11          5.545829042000        -0.171334623696
   12          1.413950221500         0.312215329606
   13          0.681366867600        -0.133109880937
   14          0.681366867600         0.376943207722
   15          0.681366867600         0.283001483819
   16          0.309114526500        -0.037925857356
   17          0.309114526500         0.107399197016
   18          0.309114526500         0.080633186893
   19          0.090000000000        -0.001379783423
   20          0.090000000000         0.003907298134
   21          0.090000000000         0.002933521939
   22          0.033000000000         0.000057065431
   23          0.033000000000        -0.000161599023
   24          0.033000000000        -0.000121325341
 D 24
    1         24.000000000000        -0.000011125717
    2         18.204262749000         0.000077762633
    3         14.048192487000        -0.000147937311
    4          9.516678695400         0.000094937069
    5          4.252940604200         0.000188645684
    6          1.299958350200        -0.001168744869
    7          0.617568501300        -0.000957439659
    8          0.187853054700         0.010753808042
    9          0.087865524000         0.001096045793
   10          0.037004242900        -0.031880207166
   11          8.555722652300        -0.004681362051
   12          6.192725084500         0.012784011946
   13          1.491673369800        -0.046818671345
   14          8.555722652300         0.012529876910
   15          6.192725084500        -0.034216985219
   16          1.491673369800         0.125312287890
   17          8.555722652300        -0.021681037516
   18          6.192725084500         0.059207264809
   19          1.491673369800        -0.216833767366
   20          8.555722652300         0.007204662836
   21          6.192725084500        -0.019674721750
   22          1.491673369800         0.072054401647
   23          8.555722652300        -0.000366561161
   24          6.192725084500         0.001001016843
 S 10
    1         24.000000000000         0.084220891154
    2         18.204262749000        -0.446503247129
    3         14.048192487000         0.655509124602
    4          9.516678695400        -0.284971743093
    5          4.252940604200        -0.237910815067
    6          1.299958350200        -0.051642696949
    7          0.617568501300         2.029990524368
    8          0.187853054700        -5.550250953576
    9          0.087865524000         5.531971603954
   10          0.037004242900        -1.769981152692
 S 10
    1         24.000000000000         0.395511504863
    2         18.204262749000        -2.096833324580
    3         14.048192487000         3.078350237926
    4          9.516678695400        -1.338261818528
    5          4.252940604200        -1.399257763164
    6          1.299958350200         5.704744941750
    7          0.617568501300        -6.587298773574
    8          0.187853054700         4.589679405194
    9          0.087865524000        -3.014272051698
   10          0.037004242900         0.825836438087
 S 10
    1         24.000000000000         1.980291305803
    2         18.204262749000       -10.498659966476
    3         14.048192487000        15.413028792918
    4          9.516678695400        -6.700559178519
    5          4.252940604200        -1.726442049069
    6          1.299958350200         2.464466262693
    7          0.617568501300        -1.878755945755
    8          0.187853054700         1.011682206584
    9          0.087865524000        -0.658709025587
   10          0.037004242900         0.184819435264
 S 10
    1         24.000000000000         2.197296862265
    2         18.204262749000       -11.649130880252
    3         14.048192487000        17.102029234505
    4          9.516678695400        -7.434824167150
    5          4.252940604200         0.576246620565
    6          1.299958350200         0.207117398384
    7          0.617568501300        -0.206639406347
    8          0.187853054700         0.124647008929
    9          0.087865524000        -0.083138284043
   10          0.037004242900         0.023620053756
 D 24
    1          8.555722652300         0.009133986195
    2          6.192725084500        -0.024943379162
    3          1.491673369800         0.091349716830
    4          8.555722652300        -0.016600762377
    5          6.192725084500         0.045333888350
    6          1.491673369800        -0.166025534738
    7          8.555722652300        -0.006510939652
    8          6.192725084500         0.017780280480
    9          1.491673369800        -0.065116421334
   10          8.555722652300         0.014715553700
   11          6.192725084500        -0.040185700711
   12          1.491673369800         0.147171413975
   13          8.555722652300        -0.009767744647
   14          6.192725084500         0.026674066842
   15          1.491673369800        -0.097687985132
   16          0.674232415100         0.146401724190
   17          0.674232415100        -0.266081005925
   18          0.674232415100        -0.104358904299
   19          0.674232415100         0.235864428539
   20          0.674232415100        -0.156559756858
   21          0.286357370800         0.125203090617
   22          0.286357370800        -0.227553087100
   23          0.286357370800        -0.089247974529
   24          0.286357370800         0.201711800752
 P 24
    1         15.500000000000         0.010750860815
    2         14.000000000000        -0.015573745002
    3          5.545829042000         0.019984495594
    4          1.413950221500        -0.036416841759
    5         15.500000000000        -0.030444501436
    6         14.000000000000         0.044102040779
    7          5.545829042000        -0.056592492015
    8          1.413950221500         0.103125936641
    9         15.500000000000        -0.022857127822
   10         14.000000000000         0.033110937468
   11          5.545829042000        -0.042488520512
   12          1.413950221500         0.077424907763
   13          0.681366867600        -0.040248356721
   14          0.681366867600         0.113976096901
   15          0.681366867600         0.085570992877
   16          0.309114526500        -0.061180415711
   17          0.309114526500         0.173251917781
   18          0.309114526500         0.130074103478
   19          0.090000000000         0.464547720919
   20          0.090000000000        -1.315515473620
   21          0.090000000000        -0.987662924797
   22          0.033000000000        -0.318898644627
   23          0.033000000000         0.903063523147
   24          0.033000000000         0.678002181225
 D 24
    1         24.000000000000         0.000020090746
    2         18.204262749000        -0.000140423245
    3         14.048192487000         0.000267144213
    4          9.516678695400        -0.000171436728
    5          4.252940604200        -0.000333734741
    6          1.299958350200         0.001140466357
    7          0.617568501300         0.009189481665
    8          0.187853054700        -0.090412329945
    9          0.087865524000         0.200107308082
   10          0.037004242900        -0.207535055715
   11          8.555722652300         0.006227864933
   12          6.192725084500        -0.017007251061
   13          1.491673369800         0.062285368731
   14          8.555722652300         0.007574472877
   15          6.192725084500        -0.020684610737
   16          1.491673369800         0.075752901053
   17          8.555722652300         0.002413961213
   18          6.192725084500        -0.006592121833
   19          1.491673369800         0.024142216612
   20          8.555722652300        -0.003106131088
   21          6.192725084500         0.008482321278
   22          1.491673369800        -0.031064662161
   23          8.555722652300        -0.013338021349
   24          6.192725084500         0.036423891681
 P 24
    1         15.500000000000         0.028999175290
    2         14.000000000000        -0.042008334868
    3          5.545829042000         0.053905812828
    4          1.413950221500        -0.098230122767
    5         15.500000000000        -0.082120441234
    6         14.000000000000         0.118960038013
    7          5.545829042000        -0.152651552682
    8          1.413950221500         0.278170014954
    9         15.500000000000        -0.061654398448
   10         14.000000000000         0.089312837009
   11          5.545829042000        -0.114607757963
   12          1.413950221500         0.208844529822
   13          0.681366867600        -0.343858063636
   14          0.681366867600         0.973744102207
   15          0.681366867600         0.731067758061
   16          0.309114526500         0.668655190730
   17          0.309114526500        -1.893511065292
   18          0.309114526500        -1.421610550687
   19          0.090000000000        -0.408272851049
   20          0.090000000000         1.156155178089
   21          0.090000000000         0.868018375773
   22          0.033000000000         0.155850971927
   23          0.033000000000        -0.441341881392
   24          0.033000000000        -0.331350730686
 D 24
    1         24.000000000000         0.000029534005
    2         18.204262749000        -0.000206426421
    3         14.048192487000         0.000392710081
    4          9.516678695400        -0.000252017181
    5          4.252940604200        -0.000537963579
    6          1.299958350200         0.004941006894
    7          0.617568501300        -0.005188428791
    8          0.187853054700        -0.009939217385
    9          0.087865524000         0.008498691489
   10          0.037004242900        -0.002931614345
   11          8.555722652300         0.003568252812
   12          6.192725084500        -0.009744297936
   13          1.491673369800         0.035686377992
   14          8.555722652300         0.004406400172
   15          6.192725084500        -0.012033137328
   16          1.491673369800         0.044068755893
   17          8.555722652300         0.001310463735
   18          6.192725084500        -0.003578655926
   19          1.491673369800         0.013106051244
   20          8.555722652300        -0.001761856755
   21          6.192725084500         0.004811334299
   22          1.491673369800        -0.017620468460
   23          8.555722652300        -0.007679999935
   24          6.192725084500         0.020972787374
 D 24
    1         24.000000000000         0.000023652064
    2         18.204262749000        -0.000165314893
    3         14.048192487000         0.000314498621
    4          9.516678695400        -0.000201825876
    5          4.252940604200        -0.000479034767
    6          1.299958350200         0.005678122033
    7          0.617568501300        -0.011496489890
    8          0.187853054700         0.017351960667
    9          0.087865524000        -0.019914075486
   10          0.037004242900         0.010039110620
   11          8.555722652300         0.078636613286
   12          6.192725084500        -0.214743357327
   13          1.491673369800         0.786450975845
   14          8.555722652300         0.097123764173
   15          6.192725084500        -0.265228655242
   16          1.491673369800         0.971342430953
   17          8.555722652300         0.028862154562
   18          6.192725084500        -0.078817686969
   19          1.491673369800         0.288652685710
   20          8.555722652300        -0.038823205888
   21          6.192725084500         0.106019641821
   22          1.491673369800        -0.388273946196
   23          8.555722652300        -0.169259902599
   24          6.192725084500         0.462220309674
 P 24
    1         15.500000000000         0.265480137463
    2         14.000000000000        -0.384575713060
    3          5.545829042000         0.493494123768
    4          1.413950221500        -0.899272004614
    5         15.500000000000        -0.751791932340
    6         14.000000000000         1.089049151532
    7          5.545829042000        -1.397486472816
    8          1.413950221500         2.546576344689
    9         15.500000000000        -0.564430471244
   10         14.000000000000         0.817636502023
   11          5.545829042000        -1.049205125085
   12          1.413950221500         1.911919009051
   13          0.681366867600         1.122324098817
   14          0.681366867600        -3.178219700444
   15          0.681366867600        -2.386144312105
   16          0.309114526500        -0.620773815796
   17          0.309114526500         1.757919635658
   18          0.309114526500         1.319811194668
   19          0.090000000000         0.211734813476
   20          0.090000000000        -0.599594855149
   21          0.090000000000        -0.450163924470
   22          0.033000000000        -0.077702347033
   23          0.033000000000         0.220039051440
   24          0.033000000000         0.165200955416
 end
  // -----------------------------------------------
  // The basis set
  // -----------------------------------------------
  BAS[ATNO] = new BFNGauss[NSH];
  // Basis function   1 L = s
  InitBFNGauss(BAS[ATNO][  0]);
  BAS[ATNO][  0].l  = 0;
  BAS[ATNO][  0].ng = 10;
  BAS[ATNO][  0].a[  0] =        24.000000000000;     BAS[ATNO][  0].d[  0] =         0.243572553859;
  BAS[ATNO][  0].a[  1] =        18.204262749000;     BAS[ATNO][  0].d[  1] =        -1.291317803922;
  BAS[ATNO][  0].a[  2] =        14.048192487000;     BAS[ATNO][  0].d[  2] =         1.895777037852;
  BAS[ATNO][  0].a[  3] =         9.516678695400;     BAS[ATNO][  0].d[  3] =        -0.824157691656;
  BAS[ATNO][  0].a[  4] =         4.252940604200;     BAS[ATNO][  0].d[  4] =        -0.657364465777;
  BAS[ATNO][  0].a[  5] =         1.299958350200;     BAS[ATNO][  0].d[  5] =         0.820848914091;
  BAS[ATNO][  0].a[  6] =         0.617568501300;     BAS[ATNO][  0].d[  6] =         0.556538699809;
  BAS[ATNO][  0].a[  7] =         0.187853054700;     BAS[ATNO][  0].d[  7] =         0.040797327101;
  BAS[ATNO][  0].a[  8] =         0.087865524000;     BAS[ATNO][  0].d[  8] =        -0.012182101763;
  BAS[ATNO][  0].a[  9] =         0.037004242900;     BAS[ATNO][  0].d[  9] =         0.001959746981;

FINAL SINGLE POINT ENERGY       -89.795243628507

DIPOLE MOMENT
-------------
                                X             Y             Z
Electronic contribution:     -0.00000       0.00000       0.00000
Nuclear contribution   :      0.00000       0.00000       0.00000
                        -----------------------------------------
Total Dipole Moment    :     -0.00000       0.00000       0.00000
                        -----------------------------------------
Magnitude (a.u.)       :      0.00000
Magnitude (Debye)      :      0.00000

Rotational constants in cm-1:     0.000000     0.000000     0.000000
Rotational constants in MHz :     0.000000     0.000000     0.000000

                             ****ORCA TERMINATED NORMALLY****
TOTAL RUN TIME: 0 days 0 hours 0 minutes 1 seconds 698 msec
