                         Program Version 4.2.0 -  RELEASE  -
|  1> #
|  2> # 76_Os CCSD(T)/Def2-QZVPPD
|  3> #
|  4> ! CCSD(T) Def2-QZVPPD tightscf slowconv
|  5>
|  6> *xyz 0 5
|  7>  Os 0.0 0.0 0.0
|  8> *
|  9>
| 10> %maxcore 5000
| 11>
| 12> %pal
| 13> nprocs 24
| 14> end
| 15>
| 16> %method
| 17> NewNCore Os 60 end
| 18> end
| 19>
| 20>
| 21>                          ****END OF INPUT****

CARTESIAN COORDINATES (ANGSTROEM)
---------------------------------
  Os     0.000000    0.000000    0.000000

 Total Charge           Charge          ....    0
 Multiplicity           Mult            ....    5
 Number of Electrons    NEL             ....   16
 Basis Dimension        Dim             ....   88

ORBITAL ENERGIES
----------------
                 SPIN UP ORBITALS
  NO   OCC          E(Eh)            E(eV)
   0   1.0000      -4.082846      -111.0999
   1   1.0000      -2.424589       -65.9764
   2   1.0000      -2.374204       -64.6054
   3   1.0000      -2.374173       -64.6045
   4   1.0000      -0.504967       -13.7408
   5   1.0000      -0.497602       -13.5404
   6   1.0000      -0.497591       -13.5402
   7   1.0000      -0.478716       -13.0265
   8   1.0000      -0.442133       -12.0310
   9   1.0000      -0.325329        -8.8527
  10   0.0000       0.030321         0.8251
  11   0.0000       0.038814         1.0562
  12   0.0000       0.038817         1.0563
  13   0.0000       0.113676         3.0933
  14   0.0000       0.183178         4.9845

                 SPIN DOWN ORBITALS
  NO   OCC          E(Eh)            E(eV)
   0   1.0000      -3.887363      -105.7805
   1   1.0000      -2.125110       -57.8272
   2   1.0000      -2.125087       -57.8266
   3   1.0000      -2.089059       -56.8462
   4   1.0000      -0.346445        -9.4273
   5   1.0000      -0.247326        -6.7301
   6   0.0000       0.041030         1.1165
   7   0.0000       0.042554         1.1579
   8   0.0000       0.042556         1.1580
   9   0.0000       0.095175         2.5898
  10   0.0000       0.103897         2.8272

E(0)                                       ...    -89.839332453
E(0)                                       ...    -89.839332453
E(CORR)                                    ...     -0.470756826
E(TOT)                                     ...    -90.310089278
E(CCSD(T))                                 ...    -90.328391087

MULLIKEN ATOMIC CHARGES AND SPIN DENSITIES
------------------------------------------
   0 Os:    0.000000    4.000000
Sum of atomic charges       :    0.0000000

LOEWDIN ATOMIC CHARGES AND SPIN DENSITIES
-----------------------------------------
   0 Os:    0.000000    4.000000

FINAL SINGLE POINT ENERGY       -90.328391086881

DIPOLE MOMENT
-------------
                                X             Y             Z
Electronic contribution:     -0.00000      -0.00000      -0.00000
Nuclear contribution   :      0.00000       0.00000       0.00000
                        -----------------------------------------
Total Dipole Moment    :     -0.00000      -0.00000      -0.00000
                        -----------------------------------------
Magnitude (a.u.)       :      0.00000
Magnitude (Debye)      :      0.00000

Rotational constants in cm-1:     0.000000     0.000000     0.000000
Rotational constants in MHz :     0.000000     0.000000     0.000000

                             ****ORCA TERMINATED NORMALLY****
TOTAL RUN TIME: 0 days 0 hours 0 minutes 30 seconds 67 msec
