                         Program Version 4.2.0 -  RELEASE  -
|  1> # input to generate an atomic fitting density for Ir
|  2> # this file is use internally by ORCA
|  3> #
|  4> # atomic ground state (S=4): 1s2 2s2 2p6 3s2 3p6 4s2 3d10 4p6 5s2 4d10 5p6 6s2 4f14 5d7
|  5> #
|  6> ! RHF AllowRHF def2-SVP def2/J  NoMulliken NoLoewdin NoMayer NoPrintMOs
|  7>
|  8> %output print[p_atomdensfit] 2 end
|  9>
| 10> %scf
| 11>   guess hcore
| 12>   maxiter 1000
| 13>   maxdisk 500000
| 14>   SCFMode Conventional
| 15>   lshift 1.000000
| 16>   hftyp rohf
| 17>   rohf_case sahf
| 18>   rohf_numop   2
| 19>   rohf_norb[1] 5
| 20>   rohf_nel[1]  7
| 21> end
| 22>
| 23> %basis
| 24>   NewECP 77
| 25>     N_core 60
| 26>     lmax f
| 27>     s 3
| 28>       1      13.6522026000    732.2691998000  2
| 29>       2       6.8261013000     26.4847209000  2
| 30>       3       3.0340719000    -21.5310311000  2
| 31>     p 3
| 32>       1      10.2798684000    299.4894736000  2
| 33>       2       5.1399341000     26.4662335000  2
| 34>       3       3.0340719000    -21.5310311000  2
| 35>     d 3
| 36>       1       7.3498590000    124.4575945000  2
| 37>       2       3.6749295000     14.0359952000  2
| 38>       3       3.0340719000    -21.5310311000  2
| 39>     f 1
| 40>       1       3.0340719000     21.5310311000  2
| 41>   end
| 42>   NewGTO 77
| 43>     s 4
| 44>      1      23.4655072220      6.9406560251
| 45>      2      20.6570911160    -15.3521408477
| 46>      3      15.7251078580     12.6324746363
| 47>      4       7.9297463605     -4.1965222585
| 48>     s 1
| 49>      1       4.5196120103      1.0000000000
| 50>     s 1
| 51>      1       1.3392891402      1.0000000000
| 52>     s 1
| 53>      1       0.6369227693      1.0000000000
| 54>     s 1
| 55>      1       0.1912677064      1.0000000000
| 56>     s 1
| 57>      1       0.0878819990      1.0000000000
| 58>     s 1
| 59>      1       0.0376431055      1.0000000000
| 60>     p 4
| 61>      1      15.9026641430     -0.3696129600
| 62>      2      14.4158306980      0.5328002574
| 63>      3       5.7597608991     -0.6875844229
| 64>      4       1.5008913108      1.2595095548
| 65>     p 1
| 66>      1       0.7234803596      1.0000000000
| 67>     p 1
| 68>      1       0.3278598033      1.0000000000
| 69>     p 1
| 70>      1       0.0910000000      1.0000000000
| 71>     p 1
| 72>      1       0.0350000000      1.0000000000
| 73>     d 3
| 74>      1       8.9686781612      0.1108365003
| 75>      2       6.4456319498     -0.3063673623
| 76>      3       1.5835819740      1.0881644997
| 77>     d 1
| 78>      1       0.7187191788      1.0000000000
| 79>     d 1
| 80>      1       0.3053923328      1.0000000000
| 81>     d 1
| 82>      1       0.1179140550      1.0000000000
| 83>   end
| 84>   NewAuxGTO 77
| 85>     S 1
| 86>      1 1310.72 1.0
| 87>     S 1
| 88>      1  655.36 1.0
| 89>     S 1
| 90>      1  327.68 1.0
| 91>     S 1
| 92>      1  163.84 1.0
| 93>     S 1
| 94>      1   81.82 1.0
| 95>     S 1
| 96>      1   40.96 1.0
| 97>     S 1
| 98>      1   20.48 1.0
| 99>     S 1
|100>      1   10.24 1.0
|101>     S 1
|102>      1    5.12 1.0
|103>     S 1
|104>      1    2.56 1.0
|105>     S 1
|106>      1    1.28 1.0
|107>     S 1
|108>      1    0.64 1.0
|109>     S 1
|110>      1    0.32 1.0
|111>     S 1
|112>      1    0.16 1.0
|113>     S 1
|114>      1    0.08 1.0
|115>     S 1
|116>      1    0.04 1.0
|117>     S 1
|118>      1    0.02 1.0
|119>     S 1
|120>      1    0.01 1.0
|121>   end
|122> end
|123>
|124> * xyz 0 4
|125> 77  0.0 0.0 0.0
|126> *
|127>
|128>
|129>                          ****END OF INPUT****

CARTESIAN COORDINATES (ANGSTROEM)
---------------------------------
  Ir     0.000000    0.000000    0.000000

 Total Charge           Charge          ....    0
 Multiplicity           Mult            ....    4
 Number of Electrons    NEL             ....   17
 Basis Dimension        Dim             ....   42

ORBITAL ENERGIES
----------------

  NO   OCC          E(Eh)            E(eV)
   0   2.0000      -4.201707      -114.3343
   1   2.0000      -2.390782       -65.0565
   2   2.0000      -2.384615       -64.8887
   3   2.0000      -2.383215       -64.8506
   4   2.0000      -0.389682       -10.6038
   5   1.4000      -0.426352       -11.6016
   6   1.4000      -0.422242       -11.4898
   7   1.4000      -0.419000       -11.4016
   8   1.4000      -0.404747       -11.0137
   9   1.4000      -0.298939        -8.1345
  10   0.0000       0.005597         0.1523
  11   0.0000       0.008882         0.2417
  12   0.0000       0.009614         0.2616
  13   0.0000       0.085664         2.3310
  14   0.0000       0.165122         4.4932

CleanUpVectors: The p-vectors have cracked symmetry
CleanUpVectors: The p-vectors have cracked symmetry
CleanUpVectors: The p-vectors have cracked symmetry
CleanUpVectors: The d-vectors have cracked symmetry at i=4
CleanUpVectors: The d-vectors have cracked symmetry at i=5
CleanUpVectors: The d-vectors have cracked symmetry at i=6
CleanUpVectors: The d-vectors have cracked symmetry at i=7
CleanUpVectors: The d-vectors have cracked symmetry at i=8
CleanUpVectors: The p-vectors have cracked symmetry
CleanUpVectors: The p-vectors have cracked symmetry
CleanUpVectors: The p-vectors have cracked symmetry
CleanUpVectors: The p-vectors have cracked symmetry
CleanUpVectors: The p-vectors have cracked symmetry
CleanUpVectors: The p-vectors have cracked symmetry
CleanUpVectors: The d-vectors have cracked symmetry at i=17
CleanUpVectors: The d-vectors have cracked symmetry at i=18
CleanUpVectors: The d-vectors have cracked symmetry at i=19
CleanUpVectors: The d-vectors have cracked symmetry at i=20
CleanUpVectors: The d-vectors have cracked symmetry at i=21
CleanUpVectors: The p-vectors have cracked symmetry
CleanUpVectors: The p-vectors have cracked symmetry
CleanUpVectors: The p-vectors have cracked symmetry
CleanUpVectors: The d-vectors have cracked symmetry at i=26
CleanUpVectors: The d-vectors have cracked symmetry at i=27
CleanUpVectors: The d-vectors have cracked symmetry at i=28
CleanUpVectors: The d-vectors have cracked symmetry at i=29
CleanUpVectors: The d-vectors have cracked symmetry at i=30
CleanUpVectors: The d-vectors have cracked symmetry at i=32
CleanUpVectors: The d-vectors have cracked symmetry at i=33
CleanUpVectors: The d-vectors have cracked symmetry at i=34
CleanUpVectors: The d-vectors have cracked symmetry at i=35
CleanUpVectors: The d-vectors have cracked symmetry at i=36
CleanUpVectors: The p-vectors have cracked symmetry
CleanUpVectors: The p-vectors have cracked symmetry
CleanUpVectors: The p-vectors have cracked symmetry
--------------------------
ATOM BASIS FOR ELEMENT Ir
--------------------------
 NewGTO Ir
 S 10
    1         23.465507222000        -0.689999373822
    2         20.657091116000         1.526219932731
    3         15.725107858000        -1.255846645813
    4          7.929746360500         0.417193665861
    5          4.519612010300         0.632469925806
    6          1.339289140200        -0.860336049907
    7          0.636922769300        -0.517410881204
    8          0.191267706400        -0.034011338648
    9          0.087881999000         0.008177999196
   10          0.037643105500        -0.002427807353
 P 24
    1         15.902664143000        -0.016483514181
    2         14.415830698000         0.023761127311
    3          5.759760899100        -0.030663988582
    4          1.500891310800         0.056169955748
    5         15.902664143000        -0.124038355059
    6         14.415830698000         0.178802354503
    7          5.759760899100        -0.230746348235
    8          1.500891310800         0.422678613212
    9         15.902664143000         0.102886143131
   10         14.415830698000        -0.148311259278
   11          5.759760899100         0.191397264179
   12          1.500891310800        -0.350599395460
   13          0.723480359600         0.049746176680
   14          0.723480359600         0.374339710469
   15          0.723480359600        -0.310503706799
   16          0.327859803300         0.013445376149
   17          0.327859803300         0.101176382803
   18          0.327859803300        -0.083922814017
   19          0.091000000000         0.000512864734
   20          0.091000000000         0.003859304348
   21          0.091000000000        -0.003201178694
   22          0.035000000000        -0.000042544918
   23          0.035000000000        -0.000320150277
   24          0.035000000000         0.000265555176
 D 24
    1         23.465507222000        -0.000015258281
    2         20.657091116000         0.000038338472
    3         15.725107858000        -0.000041440962
    4          7.929746360500         0.000027300164
    5          4.519612010300         0.000081160599
    6          1.339289140200        -0.000566145850
    7          0.636922769300        -0.000345148220
    8          0.191267706400         0.004415240494
    9          0.087881999000         0.000680767039
   10          0.037643105500        -0.006969320381
   11          8.968678161200        -0.004070041515
   12          6.445631949800         0.011250155680
   13          1.583581974000        -0.039958629846
   14          8.968678161200        -0.017431669621
   15          6.445631949800         0.048183537263
   16          1.583581974000        -0.171139687745
   17          8.968678161200        -0.022238109782
   18          6.445631949800         0.061469200291
   19          1.583581974000        -0.218328091736
   20          8.968678161200         0.002932082992
   21          6.445631949800        -0.008104681488
   22          1.583581974000         0.028786443211
   23          8.968678161200         0.000040230059
   24          6.445631949800        -0.000111201428
 S 10
    1         23.465507222000        -0.231978720419
    2         20.657091116000         0.513117200545
    3         15.725107858000        -0.422217336699
    4          7.929746360500         0.140261073336
    5          4.519612010300         0.227198334905
    6          1.339289140200        -0.010962784461
    7          0.636922769300        -1.863299786420
    8          0.191267706400         5.326474698621
    9          0.087881999000        -5.471880926701
   10          0.037643105500         1.833314009733
 S 10
    1         23.465507222000        -1.089137651064
    2         20.657091116000         2.409079856602
    3         15.725107858000        -1.982305952457
    4          7.929746360500         0.658524263230
    5          4.519612010300         1.292565438423
    6          1.339289140200        -5.562900743589
    7          0.636922769300         6.473779352276
    8          0.191267706400        -4.483897359154
    9          0.087881999000         2.976563656391
   10          0.037643105500        -0.849317264773
 S 10
    1         23.465507222000        -5.603674921559
    2         20.657091116000        12.394852352484
    3         15.725107858000       -10.199076436099
    4          7.929746360500         3.388144644062
    5          4.519612010300         1.538565723326
    6          1.339289140200        -2.468076218934
    7          0.636922769300         1.885522395444
    8          0.191267706400        -0.995405852292
    9          0.087881999000         0.653770805524
   10          0.037643105500        -0.190876871792
 S 10
    1         23.465507222000        -6.122152050038
    2         20.657091116000        13.541679665916
    3         15.725107858000       -11.142740716727
    4          7.929746360500         3.701630977676
    5          4.519612010300        -0.738731423216
    6          1.339289140200        -0.276011629090
    7          0.636922769300         0.256327518125
    8          0.191267706400        -0.147692294164
    9          0.087881999000         0.098919581873
   10          0.037643105500        -0.029172479098
 D 24
    1          8.968678161200        -0.003768497074
    2          6.445631949800         0.010416645286
    3          1.583581974000        -0.036998143407
    4          8.968678161200        -0.017443991915
    5          6.445631949800         0.048217597783
    6          1.583581974000        -0.171260664890
    7          8.968678161200         0.011940051186
    8          6.445631949800        -0.033003947053
    9          1.583581974000         0.117224378158
   10          8.968678161200        -0.018302394864
   11          6.445631949800         0.050590341839
   12          1.583581974000        -0.179688246173
   13          8.968678161200        -0.005655813828
   14          6.445631949800         0.015633448904
   15          1.583581974000        -0.055527338088
   16          0.718719178800        -0.057384449461
   17          0.718719178800        -0.265626814321
   18          0.718719178800         0.181816053038
   19          0.718719178800        -0.278698067841
   20          0.718719178800        -0.086123395197
   21          0.305392332800        -0.046613122875
   22          0.305392332800        -0.215767432659
   23          0.305392332800         0.147688338921
   24          0.305392332800        -0.226385151434
 P 24
    1         15.902664143000        -0.004040810511
    2         14.415830698000         0.005824863069
    3          5.759760899100        -0.007517048004
    4          1.500891310800         0.013769645544
    5         15.902664143000        -0.030407077241
    6         14.415830698000         0.043832063087
    7          5.759760899100        -0.056565745575
    8          1.500891310800         0.103616508247
    9         15.902664143000         0.025221770312
   10         14.415830698000        -0.036357398600
   11          5.759760899100         0.046919611219
   12          1.500891310800        -0.085946825829
   13          0.723480359600         0.015809205359
   14          0.723480359600         0.118964184821
   15          0.723480359600        -0.098677269150
   16          0.327859803300         0.017956195465
   17          0.327859803300         0.135120273755
   18          0.327859803300        -0.112078266590
   19          0.091000000000        -0.175834388887
   20          0.091000000000        -1.323152825378
   21          0.091000000000         1.097516094219
   22          0.035000000000         0.126862113671
   23          0.035000000000         0.954636719239
   24          0.035000000000        -0.791842894790
 D 24
    1         23.465507222000        -0.000050224328
    2         20.657091116000         0.000126195346
    3         15.725107858000        -0.000136407535
    4          7.929746360500         0.000089861527
    5          4.519612010300         0.000264861079
    6          1.339289140200        -0.001255107190
    7          0.636922769300        -0.006167756477
    8          0.191267706400         0.065483825631
    9          0.087881999000        -0.141681565618
   10          0.037643105500         0.142028527378
   11          8.968678161200        -0.008245053467
   12          6.445631949800         0.022790464116
   13          1.583581974000        -0.080947832682
   14          8.968678161200         0.003208281921
   15          6.445631949800        -0.008868133394
   16          1.583581974000         0.031498093876
   17          8.968678161200        -0.000859080819
   18          6.445631949800         0.002374617782
   19          1.583581974000        -0.008434236439
   20          8.968678161200         0.002617144870
   21          6.445631949800        -0.007234149115
   22          1.583581974000         0.025694461034
   23          8.968678161200        -0.014684230127
   24          6.445631949800         0.040589235849
 P 24
    1         15.902664143000        -0.010718364976
    2         14.415830698000         0.015450615201
    3          5.759760899100        -0.019939183942
    4          1.500891310800         0.036524377012
    5         15.902664143000        -0.080655638476
    6         14.415830698000         0.116265795823
    7          5.759760899100        -0.150042251319
    8          1.500891310800         0.274845739471
    9         15.902664143000         0.066901464154
   10         14.415830698000        -0.096439035367
   11          5.759760899100         0.124455605186
   12          1.500891310800        -0.227976403565
   13          0.723480359600         0.126339677169
   14          0.723480359600         0.950705387389
   15          0.723480359600        -0.788581971416
   16          0.327859803300        -0.244232407083
   17          0.327859803300        -1.837847542369
   18          0.327859803300         1.524440123458
   19          0.091000000000         0.152544587978
   20          0.091000000000         1.147897199495
   21          0.091000000000        -0.952146741323
   22          0.035000000000        -0.062025860432
   23          0.035000000000        -0.466744264286
   24          0.035000000000         0.387150548382
 D 24
    1         23.465507222000        -0.000069824353
    2         20.657091116000         0.000175443031
    3         15.725107858000        -0.000189640523
    4          7.929746360500         0.000124929953
    5          4.519612010300         0.000396873878
    6          1.339289140200        -0.003997279541
    7          0.636922769300         0.004306725054
    8          0.191267706400         0.009400559981
    9          0.087881999000        -0.011700301906
   10          0.037643105500         0.005972892508
   11          8.968678161200        -0.005023289040
   12          6.445631949800         0.013885063216
   13          1.583581974000        -0.049317370997
   14          8.968678161200         0.002000771279
   15          6.445631949800        -0.005530407561
   16          1.583581974000         0.019643062277
   17          8.968678161200        -0.000470475413
   18          6.445631949800         0.001300458882
   19          1.583581974000        -0.004619007644
   20          8.968678161200         0.001590513526
   21          6.445631949800        -0.004396398589
   22          1.583581974000         0.015615256258
   23          8.968678161200        -0.008964031809
   24          6.445631949800         0.024777819342
 D 24
    1         23.465507222000        -0.000051527468
    2         20.657091116000         0.000129469660
    3         15.725107858000        -0.000139946818
    4          7.929746360500         0.000092193109
    5          4.519612010300         0.000329674610
    6          1.339289140200        -0.004257648555
    7          0.636922769300         0.008699346109
    8          0.191267706400        -0.013331889776
    9          0.087881999000         0.015901388318
   10          0.037643105500        -0.008677041969
   11          8.968678161200        -0.105674295569
   12          6.445631949800         0.292098316970
   13          1.583581974000        -1.037483289875
   14          8.968678161200         0.042237126076
   15          6.445631949800        -0.116749237588
   16          1.583581974000         0.414673334510
   17          8.968678161200        -0.009728519847
   18          6.445631949800         0.026890969640
   19          1.583581974000        -0.095512127354
   20          8.968678161200         0.033446738923
   21          6.445631949800        -0.092451396008
   22          1.583581974000         0.328371554750
   23          8.968678161200        -0.188631608514
   24          6.445631949800         0.521403763115
 P 24
    1         15.902664143000        -0.100303447339
    2         14.415830698000         0.144588281104
    3          5.759760899100        -0.186592721082
    4          1.500891310800         0.341798486457
    5         15.902664143000        -0.754782898845
    6         14.415830698000         1.088026033464
    7          5.759760899100        -1.404109217157
    8          1.500891310800         2.572031762345
    9         15.902664143000         0.626070067888
   10         14.415830698000        -0.902485381793
   11          5.759760899100         1.164667024457
   12          1.500891310800        -2.133424197245
   13          0.723480359600        -0.421479096229
   14          0.723480359600        -3.171627920018
   15          0.723480359600         2.630771457914
   16          0.327859803300         0.228446469255
   17          0.327859803300         1.719058445844
   18          0.327859803300        -1.425908085015
   19          0.091000000000        -0.077588164549
   20          0.091000000000        -0.583850518683
   21          0.091000000000         0.484286719304
   22          0.035000000000         0.030400385617
   23          0.035000000000         0.228762737384
   24          0.035000000000        -0.189751917729
 end
  // -----------------------------------------------
  // The basis set
  // -----------------------------------------------
  BAS[ATNO] = new BFNGauss[NSH];
  // Basis function   1 L = s
  InitBFNGauss(BAS[ATNO][  0]);
  BAS[ATNO][  0].l  = 0;
  BAS[ATNO][  0].ng = 10;
  BAS[ATNO][  0].a[  0] =        23.465507222000;     BAS[ATNO][  0].d[  0] =        -0.689999373822;
  BAS[ATNO][  0].a[  1] =        20.657091116000;     BAS[ATNO][  0].d[  1] =         1.526219932731;
  BAS[ATNO][  0].a[  2] =        15.725107858000;     BAS[ATNO][  0].d[  2] =        -1.255846645813;
  BAS[ATNO][  0].a[  3] =         7.929746360500;     BAS[ATNO][  0].d[  3] =         0.417193665861;
  BAS[ATNO][  0].a[  4] =         4.519612010300;     BAS[ATNO][  0].d[  4] =         0.632469925806;
  BAS[ATNO][  0].a[  5] =         1.339289140200;     BAS[ATNO][  0].d[  5] =        -0.860336049907;
  BAS[ATNO][  0].a[  6] =         0.636922769300;     BAS[ATNO][  0].d[  6] =        -0.517410881204;
  BAS[ATNO][  0].a[  7] =         0.191267706400;     BAS[ATNO][  0].d[  7] =        -0.034011338648;
  BAS[ATNO][  0].a[  8] =         0.087881999000;     BAS[ATNO][  0].d[  8] =         0.008177999196;
  BAS[ATNO][  0].a[  9] =         0.037643105500;     BAS[ATNO][  0].d[  9] =        -0.002427807353;

FINAL SINGLE POINT ENERGY      -103.409713863487

DIPOLE MOMENT
-------------
                                X             Y             Z
Electronic contribution:      0.00000      -0.00000      -0.00000
Nuclear contribution   :      0.00000       0.00000       0.00000
                        -----------------------------------------
Total Dipole Moment    :      0.00000      -0.00000      -0.00000
                        -----------------------------------------
Magnitude (a.u.)       :      0.00000
Magnitude (Debye)      :      0.00000

Rotational constants in cm-1:     0.000000     0.000000     0.000000
Rotational constants in MHz :     0.000000     0.000000     0.000000

                             ****ORCA TERMINATED NORMALLY****
TOTAL RUN TIME: 0 days 0 hours 0 minutes 1 seconds 724 msec
