                         Program Version 4.2.0 -  RELEASE  -
|  1> #
|  2> # 77_Ir CCSD(T)/Def2-QZVPPD
|  3> #
|  4> ! CCSD(T) Def2-QZVPPD tightscf slowconv
|  5>
|  6> *xyz 0 4
|  7>  Ir 0.0 0.0 0.0
|  8> *
|  9>
| 10> %maxcore 5000
| 11>
| 12> %pal
| 13> nprocs 24
| 14> end
| 15>
| 16> %method
| 17> NewNCore Ir 60 end
| 18> end
| 19>
| 20>
| 21>                          ****END OF INPUT****

CARTESIAN COORDINATES (ANGSTROEM)
---------------------------------
  Ir     0.000000    0.000000    0.000000

 Total Charge           Charge          ....    0
 Multiplicity           Mult            ....    4
 Number of Electrons    NEL             ....   17
 Basis Dimension        Dim             ....   88

ORBITAL ENERGIES
----------------
                 SPIN UP ORBITALS
  NO   OCC          E(Eh)            E(eV)
   0   1.0000      -4.206604      -114.4675
   1   1.0000      -2.416856       -65.7660
   2   1.0000      -2.416855       -65.7660
   3   1.0000      -2.416854       -65.7659
   4   1.0000      -0.430249       -11.7077
   5   1.0000      -0.430249       -11.7077
   6   1.0000      -0.391826       -10.6621
   7   1.0000      -0.391826       -10.6621
   8   1.0000      -0.391825       -10.6621
   9   1.0000      -0.291407        -7.9296
  10   0.0000       0.041954         1.1416
  11   0.0000       0.041955         1.1416
  12   0.0000       0.041955         1.1417
  13   0.0000       0.122407         3.3309
  14   0.0000       0.214703         5.8424

                 SPIN DOWN ORBITALS
  NO   OCC          E(Eh)            E(eV)
   0   1.0000      -4.104374      -111.6857
   1   1.0000      -2.278122       -61.9909
   2   1.0000      -2.278122       -61.9909
   3   1.0000      -2.278122       -61.9908
   4   1.0000      -0.339208        -9.2303
   5   1.0000      -0.339208        -9.2303
   6   1.0000      -0.339208        -9.2303
   7   0.0000       0.003542         0.0964
   8   0.0000       0.069120         1.8809
   9   0.0000       0.069120         1.8809
  10   0.0000       0.069120         1.8809
  11   0.0000       0.157108         4.2751

E(0)                                       ...   -103.439587355
E(0)                                       ...   -103.439587355
E(CORR)                                    ...     -0.520403822
E(TOT)                                     ...   -103.959991177
E(CCSD(T))                                 ...   -103.979745966

MULLIKEN ATOMIC CHARGES AND SPIN DENSITIES
------------------------------------------
   0 Ir:    0.000000    3.000000
Sum of atomic charges       :    0.0000000

LOEWDIN ATOMIC CHARGES AND SPIN DENSITIES
-----------------------------------------
   0 Ir:    0.000000    3.000000

FINAL SINGLE POINT ENERGY      -103.979745965850

DIPOLE MOMENT
-------------
                                X             Y             Z
Electronic contribution:     -0.00000       0.00000       0.00000
Nuclear contribution   :      0.00000       0.00000       0.00000
                        -----------------------------------------
Total Dipole Moment    :     -0.00000       0.00000       0.00000
                        -----------------------------------------
Magnitude (a.u.)       :      0.00000
Magnitude (Debye)      :      0.00000

Rotational constants in cm-1:     0.000000     0.000000     0.000000
Rotational constants in MHz :     0.000000     0.000000     0.000000

                             ****ORCA TERMINATED NORMALLY****
TOTAL RUN TIME: 0 days 0 hours 0 minutes 28 seconds 130 msec
