                         Program Version 4.2.0 -  RELEASE  -
|  1> #
|  2> # 78_Pt CCSD(T)/Def2-QZVPPD
|  3> #
|  4> ! CCSD(T) Def2-QZVPPD tightscf veryslowconv kdiis
|  5>
|  6> *xyz 0 3
|  7>  Pt 0.0 0.0 0.0
|  8> *
|  9>
| 10> %maxcore 5000
| 11>
| 12> %pal
| 13> nprocs 24
| 14> end
| 15>
| 16> %method
| 17> NewNCore Pt 60 end
| 18> end
| 19>
| 20>
| 21>                          ****END OF INPUT****

CARTESIAN COORDINATES (ANGSTROEM)
---------------------------------
  Pt     0.000000    0.000000    0.000000

 Total Charge           Charge          ....    0
 Multiplicity           Mult            ....    3
 Number of Electrons    NEL             ....   18
 Basis Dimension        Dim             ....   88

ORBITAL ENERGIES
----------------
                 SPIN UP ORBITALS
  NO   OCC          E(Eh)            E(eV)
   0   1.0000      -4.462084      -121.4195
   1   1.0000      -2.607200       -70.9455
   2   1.0000      -2.552924       -69.4686
   3   1.0000      -2.552848       -69.4665
   4   1.0000      -0.480918       -13.0865
   5   1.0000      -0.432887       -11.7794
   6   1.0000      -0.432860       -11.7787
   7   1.0000      -0.415421       -11.3042
   8   1.0000      -0.415420       -11.3042
   9   1.0000      -0.291507        -7.9323
  10   0.0000       0.039868         1.0849
  11   0.0000       0.045842         1.2474
  12   0.0000       0.045851         1.2477
  13   0.0000       0.128030         3.4839
  14   0.0000       0.207933         5.6582

                 SPIN DOWN ORBITALS
  NO   OCC          E(Eh)            E(eV)
   0   1.0000      -4.405049      -119.8675
   1   1.0000      -2.510796       -68.3222
   2   1.0000      -2.510744       -68.3208
   3   1.0000      -2.471310       -67.2478
   4   1.0000      -0.407059       -11.0766
   5   1.0000      -0.407010       -11.0753
   6   1.0000      -0.372229       -10.1289
   7   1.0000      -0.372228       -10.1288
   8   0.0000      -0.003233        -0.0880
   9   0.0000       0.067315         1.8317
  10   0.0000       0.069249         1.8843
  11   0.0000       0.069251         1.8844
  12   0.0000       0.115833         3.1520

E(0)                                       ...   -118.400006565
E(0)                                       ...   -118.400006565
E(CORR)                                    ...     -0.574360395
E(TOT)                                     ...   -118.974366959
E(CCSD(T))                                 ...   -118.996406949

MULLIKEN ATOMIC CHARGES AND SPIN DENSITIES
------------------------------------------
   0 Pt:   -0.000000    2.000000
Sum of atomic charges       :   -0.0000000

LOEWDIN ATOMIC CHARGES AND SPIN DENSITIES
-----------------------------------------
   0 Pt:   -0.000000    2.000000

FINAL SINGLE POINT ENERGY      -118.996406948640

DIPOLE MOMENT
-------------
                                X             Y             Z
Electronic contribution:      0.00000       0.00000       0.00000
Nuclear contribution   :      0.00000       0.00000       0.00000
                        -----------------------------------------
Total Dipole Moment    :      0.00000       0.00000       0.00000
                        -----------------------------------------
Magnitude (a.u.)       :      0.00000
Magnitude (Debye)      :      0.00000

Rotational constants in cm-1:     0.000000     0.000000     0.000000
Rotational constants in MHz :     0.000000     0.000000     0.000000

                             ****ORCA TERMINATED NORMALLY****
TOTAL RUN TIME: 0 days 0 hours 0 minutes 24 seconds 928 msec
