                         Program Version 4.2.0 -  RELEASE  -
|  1> # input to generate an atomic fitting density for Au
|  2> # this file is use internally by ORCA
|  3> #
|  4> # atomic ground state (S=2): 1s2 2s2 2p6 3s2 3p6 4s2 3d10 4p6 5s2 4d10 5p6 6s1 4f14 5d10
|  5> #
|  6> ! RHF AllowRHF def2-SVP def2/J  NoMulliken NoLoewdin NoMayer NoPrintMOs
|  7>
|  8> %output print[p_atomdensfit] 2 end
|  9>
| 10> %scf
| 11>   guess hcore
| 12>   maxiter 1000
| 13>   maxdisk 500000
| 14>   SCFMode Conventional
| 15>   lshift 1.000000
| 16>   hftyp rohf
| 17>   rohf_case sahf
| 18>   rohf_numop   2
| 19>   rohf_norb[1] 1
| 20>   rohf_nel[1]  1
| 21> end
| 22>
| 23> %basis
| 24>   NewECP 79
| 25>     N_core 60
| 26>     lmax f
| 27>     s 4
| 28>       1      13.2051000000    426.8466792000  2
| 29>       2       6.6025500000     37.0070829000  2
| 30>       3       4.7898200000    -30.4900889000  2
| 31>       4       2.3949100000     -5.1710738000  2
| 32>     p 4
| 33>       1      10.4520200000    261.1995804000  2
| 34>       2       5.2260100000     26.9624960000  2
| 35>       3       4.7898200000    -30.4900889000  2
| 36>       4       2.3949100000     -5.1710738000  2
| 37>     d 4
| 38>       1       7.8511000000    124.7906656000  2
| 39>       2       3.9255500000     16.3007257000  2
| 40>       3       4.7898200000    -30.4900889000  2
| 41>       4       2.3949100000     -5.1710738000  2
| 42>     f 2
| 43>       1       4.7898200000     30.4900889000  2
| 44>       2       2.3949100000      5.1710738000  2
| 45>   end
| 46>   NewGTO 79
| 47>     s 3
| 48>      1      24.2000000000      6.5652901781
| 49>      2      22.0000000000    -17.8287990326
| 50>      3      20.0000000000     12.2375866893
| 51>     s 1
| 52>      1       5.4043553001      1.0000000000
| 53>     s 1
| 54>      1       1.4532546773      1.0000000000
| 55>     s 1
| 56>      1       0.6829429842      1.0000000000
| 57>     s 1
| 58>      1       0.1900275530      1.0000000000
| 59>     s 1
| 60>      1       0.0881559817      1.0000000000
| 61>     s 1
| 62>      1       0.0377395552      1.0000000000
| 63>     p 4
| 64>      1      15.5000000000      0.3283807140
| 65>      2      14.0000000000     -0.5168081730
| 66>      3       6.4227368205      0.6886210803
| 67>      4       1.6595601681     -1.2538261785
| 68>     p 1
| 69>      1       0.7940291399      1.0000000000
| 70>     p 1
| 71>      1       0.3512515540      1.0000000000
| 72>     p 1
| 73>      1       0.0810000000      1.0000000000
| 74>     p 1
| 75>      1       0.0250000000      1.0000000000
| 76>     d 3
| 77>      1       8.6000000000      0.5396936402
| 78>      2       7.8531899379     -0.7182327497
| 79>      3       1.7650856798      1.0814426118
| 80>     d 1
| 81>      1       0.7948226326      1.0000000000
| 82>     d 1
| 83>      1       0.3308539636      1.0000000000
| 84>     d 1
| 85>      1       0.1239853580      1.0000000000
| 86>   end
| 87>   NewAuxGTO 79
| 88>     S 1
| 89>      1 1310.72 1.0
| 90>     S 1
| 91>      1  655.36 1.0
| 92>     S 1
| 93>      1  327.68 1.0
| 94>     S 1
| 95>      1  163.84 1.0
| 96>     S 1
| 97>      1   81.82 1.0
| 98>     S 1
| 99>      1   40.96 1.0
|100>     S 1
|101>      1   20.48 1.0
|102>     S 1
|103>      1   10.24 1.0
|104>     S 1
|105>      1    5.12 1.0
|106>     S 1
|107>      1    2.56 1.0
|108>     S 1
|109>      1    1.28 1.0
|110>     S 1
|111>      1    0.64 1.0
|112>     S 1
|113>      1    0.32 1.0
|114>     S 1
|115>      1    0.16 1.0
|116>     S 1
|117>      1    0.08 1.0
|118>     S 1
|119>      1    0.04 1.0
|120>     S 1
|121>      1    0.02 1.0
|122>     S 1
|123>      1    0.01 1.0
|124>   end
|125> end
|126>
|127> * xyz 0 2
|128> 79  0.0 0.0 0.0
|129> *
|130>
|131>
|132>                          ****END OF INPUT****

CARTESIAN COORDINATES (ANGSTROEM)
---------------------------------
  Au     0.000000    0.000000    0.000000

 Total Charge           Charge          ....    0
 Multiplicity           Mult            ....    2
 Number of Electrons    NEL             ....   19
 Basis Dimension        Dim             ....   42

ORBITAL ENERGIES
----------------

  NO   OCC          E(Eh)            E(eV)
   0   2.0000      -4.782329      -130.1338
   1   2.0000      -2.826362       -76.9092
   2   2.0000      -2.826362       -76.9092
   3   2.0000      -2.822501       -76.8041
   4   2.0000      -0.552857       -15.0440
   5   2.0000      -0.552857       -15.0440
   6   2.0000      -0.547682       -14.9032
   7   2.0000      -0.547682       -14.9032
   8   2.0000      -0.545973       -14.8567
   9   1.0000      -0.125981        -3.4281
  10   0.0000      -0.274788        -7.4774
  11   0.0000      -0.116180        -3.1614
  12   0.0000      -0.116180        -3.1614
  13   0.0000      -0.043180        -1.1750
  14   0.0000      -0.003749        -0.1020

CleanUpVectors: The p-vectors have cracked symmetry
CleanUpVectors: The p-vectors have cracked symmetry
CleanUpVectors: The p-vectors have cracked symmetry
CleanUpVectors: The d-vectors have cracked symmetry at i=4
CleanUpVectors: The d-vectors have cracked symmetry at i=5
CleanUpVectors: The d-vectors have cracked symmetry at i=6
CleanUpVectors: The d-vectors have cracked symmetry at i=7
CleanUpVectors: The d-vectors have cracked symmetry at i=8
CleanUpVectors: The p-vectors have cracked symmetry
CleanUpVectors: The p-vectors have cracked symmetry
CleanUpVectors: The p-vectors have cracked symmetry
CleanUpVectors: The p-vectors have cracked symmetry
CleanUpVectors: The p-vectors have cracked symmetry
CleanUpVectors: The p-vectors have cracked symmetry
CleanUpVectors: The d-vectors have cracked symmetry at i=17
CleanUpVectors: The d-vectors have cracked symmetry at i=18
CleanUpVectors: The d-vectors have cracked symmetry at i=19
CleanUpVectors: The d-vectors have cracked symmetry at i=20
CleanUpVectors: The d-vectors have cracked symmetry at i=21
CleanUpVectors: The p-vectors have cracked symmetry
CleanUpVectors: The p-vectors have cracked symmetry
CleanUpVectors: The p-vectors have cracked symmetry
CleanUpVectors: The d-vectors have cracked symmetry at i=26
CleanUpVectors: The d-vectors have cracked symmetry at i=27
CleanUpVectors: The d-vectors have cracked symmetry at i=28
CleanUpVectors: The d-vectors have cracked symmetry at i=29
CleanUpVectors: The d-vectors have cracked symmetry at i=30
CleanUpVectors: The d-vectors have cracked symmetry at i=32
CleanUpVectors: The d-vectors have cracked symmetry at i=33
CleanUpVectors: The d-vectors have cracked symmetry at i=34
CleanUpVectors: The d-vectors have cracked symmetry at i=35
CleanUpVectors: The d-vectors have cracked symmetry at i=36
CleanUpVectors: The p-vectors have cracked symmetry
CleanUpVectors: The p-vectors have cracked symmetry
CleanUpVectors: The p-vectors have cracked symmetry
--------------------------
ATOM BASIS FOR ELEMENT Au
--------------------------
 NewGTO Au
 S 9
    1         24.200000000000        -1.463761883338
    2         22.000000000000         3.975013402557
    3         20.000000000000        -2.728426688526
    4          5.404355300100         0.828371400597
    5          1.453254677300        -0.885296600649
    6          0.682942984200        -0.489463096890
    7          0.190027553000        -0.025983686452
    8          0.088155981700         0.007545333243
    9          0.037739555200        -0.001720094716
 P 23
    1         15.500000000000         0.048922659022
    2         14.000000000000        -0.076994868912
    3          6.422736820500         0.102591817579
    4          1.659560168100        -0.186796934134
    5         15.500000000000         0.099096024744
    6         14.000000000000        -0.155958109950
    7          6.422736820500         0.207806392712
    8          1.659560168100        -0.378369327771
    9         15.500000000000        -0.101389110918
   10         14.000000000000         0.159566987164
   11          6.422736820500        -0.212615041367
   12          1.659560168100         0.387124809906
   13          0.794029139900        -0.158017601900
   14          0.794029139900        -0.320074920309
   15          0.794029139900         0.327481467407
   16          0.351251554000        -0.038552570122
   17          0.351251554000        -0.078090735849
   18          0.351251554000         0.079897758756
   19          0.081000000000        -0.000451710460
   20          0.081000000000        -0.000914968887
   21          0.081000000000         0.000936141306
   22          0.025000000000        -0.000012779996
   23          0.025000000000         0.000013075726
 D 23
    1          8.600000000000        -0.000230337478
    2          7.853189937900         0.000306536724
    3          1.765085679800        -0.000461552158
    4          8.600000000000        -0.110087796351
    5          7.853189937900         0.146506563710
    6          1.765085679800        -0.220594843344
    7          8.600000000000         0.108500434455
    8          7.853189937900        -0.144394077635
    9          1.765085679800         0.217414074353
   10          8.600000000000         0.008418324706
   11          7.853189937900        -0.011203238377
   12          1.765085679800         0.016868709170
   13          8.600000000000        -0.000009938408
   14          7.853189937900         0.000013226188
   15          1.765085679800        -0.000019914664
   16          0.794822632600        -0.000675908055
   17          0.794822632600        -0.323044381940
   18          0.794822632600         0.318386387505
   19          0.794822632600         0.024702942486
   20          0.794822632600        -0.000029163512
   21          0.330853963600        -0.000515613522
   22          0.330853963600        -0.246433002684
   23          0.330853963600         0.242879671874
 S 9
    1         24.200000000000        -0.486071018470
    2         22.000000000000         1.319981641144
    3         20.000000000000        -0.906027923263
    4          5.404355300100         0.298021885814
    5          1.453254677300        -0.137165888943
    6          0.682942984200        -1.518690380022
    7          0.190027553000         5.044054356858
    8          0.088155981700        -5.423588162655
    9          0.037739555200         1.883996573950
 S 9
    1         24.200000000000        -2.361311851960
    2         22.000000000000         6.412413361763
    3         20.000000000000        -4.401444217230
    4          5.404355300100         1.526794099428
    5          1.453254677300        -5.163394742035
    6          0.682942984200         5.926625060121
    7          0.190027553000        -4.186543568949
    8          0.088155981700         2.933546660489
    9          0.037739555200        -0.846641511739
 S 9
    1         24.200000000000       -12.147382305994
    2         22.000000000000        32.987610909897
    3         20.000000000000       -22.642509315665
    4          5.404355300100         3.535977908596
    5          1.453254677300        -2.887699915977
    6          0.682942984200         2.090263779352
    7          0.190027553000        -1.076688750298
    8          0.088155981700         0.740791325304
    9          0.037739555200        -0.217905164022
 S 9
    1         24.200000000000       -12.109798207545
    2         22.000000000000        32.885546976713
    3         20.000000000000       -22.572453209928
    4          5.404355300100         1.367533909267
    5          1.453254677300        -0.886597922128
    6          0.682942984200         0.622899746427
    7          0.190027553000        -0.319681016606
    8          0.088155981700         0.220658356808
    9          0.037739555200        -0.065101529995
 D 23
    1          8.600000000000        -0.003804577254
    2          7.853189937900         0.005063191002
    3          1.765085679800        -0.007623643594
    4          8.600000000000        -0.034019025360
    5          7.853189937900         0.045273051796
    6          1.765085679800        -0.068167606391
    7          8.600000000000        -0.022939227976
    8          7.853189937900         0.030527883891
    9          1.765085679800        -0.045965816098
   10          8.600000000000        -0.149321832456
   11          7.853189937900         0.198719833488
   12          1.765085679800        -0.299212331704
   13          8.600000000000        -0.000000008085
   14          7.853189937900         0.000000010760
   15          1.765085679800        -0.000000016201
   16          0.794822632600        -0.011181687436
   17          0.794822632600        -0.099982227459
   18          0.794822632600        -0.067418601354
   19          0.794822632600        -0.438858234741
   20          0.330853963600        -0.008441276842
   21          0.330853963600        -0.075478559578
   22          0.330853963600        -0.050895634637
   23          0.330853963600        -0.331302755088
 P 23
    1         15.500000000000        -0.001449686028
    2         14.000000000000         0.002281527372
    3          6.422736820500        -0.003040021281
    4          1.659560168100         0.005535204155
    5         15.500000000000        -0.018684995556
    6         14.000000000000         0.029406594250
    7          6.422736820500        -0.039182818225
    8          1.659560168100         0.071343217110
    9         15.500000000000        -0.018961910799
   10         14.000000000000         0.029842405656
   11          6.422736820500        -0.039763515159
   12          1.659560168100         0.072400537366
   13          0.794029139900         0.006860146917
   14          0.794029139900         0.088420397364
   15          0.794029139900         0.089730804729
   16          0.351251554000         0.002505120296
   17          0.351251554000         0.032288482264
   18          0.351251554000         0.032767003807
   19          0.081000000000        -0.070670190612
   20          0.081000000000        -0.910867713404
   21          0.081000000000        -0.924366948831
   22          0.025000000000         0.066412914686
   23          0.025000000000         0.855995706493
 D 23
    1          8.600000000000        -0.069346730360
    2          7.853189937900         0.092287714954
    3          1.765085679800        -0.138957555944
    4          8.600000000000         0.003151746730
    5          7.853189937900        -0.004194393914
    6          1.765085679800         0.006315496350
    7          8.600000000000         0.003016194451
    8          7.853189937900        -0.004013998818
    9          1.765085679800         0.006043875565
   10          8.600000000000         0.000585492376
   11          7.853189937900        -0.000779182425
   12          1.765085679800         0.001173214501
   13          8.600000000000        -0.040270558430
   14          7.853189937900         0.053592689924
   15          1.765085679800        -0.080694480429
   16          0.794822632600        -0.025453927259
   17          0.794822632600         0.001156858176
   18          0.794822632600         0.001107103302
   19          0.794822632600         0.000214906749
   20          0.794822632600        -0.014781430352
   21          0.330853963600        -0.465211005138
   22          0.330853963600         0.021143423149
   23          0.330853963600         0.020234073689
 P 23
    1         15.500000000000         0.025579891881
    2         14.000000000000        -0.040257836788
    3          6.422736820500         0.053641556980
    4          1.659560168100        -0.097669371910
    5         15.500000000000         0.059054706075
    6         14.000000000000        -0.092940764950
    7          6.422736820500         0.123838927686
    8          1.659560168100        -0.225483206791
    9         15.500000000000        -0.060147932587
   10         14.000000000000         0.094661293507
   11          6.422736820500        -0.126131446062
   12          1.659560168100         0.229657374032
   13          0.794029139900        -0.322468308257
   14          0.794029139900        -0.744462535311
   15          0.794029139900         0.758244098787
   16          0.351251554000         0.600470884870
   17          0.351251554000         1.386269800427
   18          0.351251554000        -1.411932562948
   19          0.081000000000        -0.313440541932
   20          0.081000000000        -0.723620692456
   21          0.081000000000         0.737016429693
   22          0.025000000000         0.118185115414
   23          0.025000000000         0.272846628349
 D 23
    1          8.600000000000        -0.048993127700
    2          7.853189937900         0.065200821732
    3          1.765085679800        -0.098172837391
    4          8.600000000000         0.002226693505
    5          7.853189937900        -0.002963318594
    6          1.765085679800         0.004461866994
    7          8.600000000000         0.002130926935
    8          7.853189937900        -0.002835870942
    9          1.765085679800         0.004269969142
   10          8.600000000000         0.000413647534
   11          7.853189937900        -0.000550488617
   12          1.765085679800         0.000828870374
   13          8.600000000000        -0.028450953656
   14          7.853189937900         0.037862974758
   15          1.765085679800        -0.057010257928
   16          0.794822632600        -1.048928914720
   17          0.794822632600         0.047672873961
   18          0.794822632600         0.045622538956
   19          0.794822632600         0.008856075922
   20          0.794822632600        -0.609126817214
   21          0.330853963600         1.672819099593
   22          0.330853963600        -0.076028120663
   23          0.330853963600        -0.072758271287
 D 23
    1          8.600000000000        -0.002746494555
    2          7.853189937900         0.003655077972
    3          1.765085679800        -0.005503448666
    4          8.600000000000        -0.750942186791
    5          7.853189937900         0.999365624329
    6          1.765085679800        -1.504744209128
    7          8.600000000000         0.740218065322
    8          7.853189937900        -0.985093795504
    9          1.765085679800         1.483255125199
   10          8.600000000000         0.057437947697
   11          7.853189937900        -0.076439320456
   12          1.765085679800         0.115094638045
   13          8.600000000000        -0.000750240846
   14          7.853189937900         0.000998432269
   15          1.765085679800        -0.001503338857
   16          0.794822632600         0.006760653696
   17          0.794822632600         1.848487215163
   18          0.794822632600        -1.822089175769
   19          0.794822632600        -0.141386798945
   20          0.794822632600         0.001846760825
   21          0.330853963600        -0.003616121901
   22          0.330853963600        -0.988714317110
   23          0.330853963600         0.974594598413
 P 23
    1         15.500000000000        -0.851383548497
    2         14.000000000000         1.339914183331
    3          6.422736820500        -1.785368731843
    4          1.659560168100         3.250760277749
    5         15.500000000000        -0.116227808793
    6         14.000000000000         0.182920247607
    7          6.422736820500        -0.243732094608
    8          1.659560168100         0.443782058816
    9         15.500000000000         0.179620870478
   10         14.000000000000        -0.282688751035
   11          6.422736820500         0.376668642828
   12          1.659560168100        -0.685830013789
   13          0.794029139900        -3.881336823768
   14          0.794029139900        -0.529866092680
   15          0.794029139900         0.818866068220
   16          0.351251554000         1.917223586804
   17          0.351251554000         0.261732443449
   18          0.351251554000        -0.404486755906
   19          0.081000000000        -0.506775616191
   20          0.081000000000        -0.069183177809
   21          0.081000000000         0.106917120348
   22          0.025000000000         0.183359655024
   23          0.025000000000         0.025031598229
 end
  // -----------------------------------------------
  // The basis set
  // -----------------------------------------------
  BAS[ATNO] = new BFNGauss[NSH];
  // Basis function   1 L = s
  InitBFNGauss(BAS[ATNO][  0]);
  BAS[ATNO][  0].l  = 0;
  BAS[ATNO][  0].ng = 9;
  BAS[ATNO][  0].a[  0] =        24.200000000000;     BAS[ATNO][  0].d[  0] =        -1.463761883338;
  BAS[ATNO][  0].a[  1] =        22.000000000000;     BAS[ATNO][  0].d[  1] =         3.975013402557;
  BAS[ATNO][  0].a[  2] =        20.000000000000;     BAS[ATNO][  0].d[  2] =        -2.728426688526;
  BAS[ATNO][  0].a[  3] =         5.404355300100;     BAS[ATNO][  0].d[  3] =         0.828371400597;
  BAS[ATNO][  0].a[  4] =         1.453254677300;     BAS[ATNO][  0].d[  4] =        -0.885296600649;
  BAS[ATNO][  0].a[  5] =         0.682942984200;     BAS[ATNO][  0].d[  5] =        -0.489463096890;
  BAS[ATNO][  0].a[  6] =         0.190027553000;     BAS[ATNO][  0].d[  6] =        -0.025983686452;
  BAS[ATNO][  0].a[  7] =         0.088155981700;     BAS[ATNO][  0].d[  7] =         0.007545333243;
  BAS[ATNO][  0].a[  8] =         0.037739555200;     BAS[ATNO][  0].d[  8] =        -0.001720094716;

FINAL SINGLE POINT ENERGY      -134.632456819368

DIPOLE MOMENT
-------------
                                X             Y             Z
Electronic contribution:     -0.00000      -0.00000      -0.00000
Nuclear contribution   :      0.00000       0.00000       0.00000
                        -----------------------------------------
Total Dipole Moment    :     -0.00000      -0.00000      -0.00000
                        -----------------------------------------
Magnitude (a.u.)       :      0.00000
Magnitude (Debye)      :      0.00000

Rotational constants in cm-1:     0.000000     0.000000     0.000000
Rotational constants in MHz :     0.000000     0.000000     0.000000

                             ****ORCA TERMINATED NORMALLY****
TOTAL RUN TIME: 0 days 0 hours 0 minutes 1 seconds 429 msec
