                         Program Version 4.2.0 -  RELEASE  -
|  1> # input to generate an atomic fitting density for Hg
|  2> # this file is use internally by ORCA
|  3> #
|  4> # atomic ground state (S=1): 1s2 2s2 2p6 3s2 3p6 4s2 3d10 4p6 5s2 4d10 5p6 6s2 4f14 5d10
|  5> #
|  6> ! RHF AllowRHF def2-SVP def2/J  NoMulliken NoLoewdin NoMayer NoPrintMOs
|  7>
|  8> %output print[p_atomdensfit] 2 end
|  9>
| 10> %scf
| 11>   guess hcore
| 12>   maxiter 1000
| 13>   maxdisk 500000
| 14>   SCFMode Conventional
| 15>   lshift 1.000000
| 16>   hftyp rohf
| 17>   rohf_case sahf
| 18>   rohf_numop   2
| 19>   rohf_norb[1] 5
| 20>   rohf_nel[1]  10
| 21> end
| 22>
| 23> %basis
| 24>   NewECP 80
| 25>     N_core 60
| 26>     lmax f
| 27>     s 3
| 28>       1      12.9815487000    275.7372117000  2
| 29>       2       6.4907744000     49.0892125000  2
| 30>       3       3.8857911000    -30.3649964000  2
| 31>     p 3
| 32>       1      10.5380958000    241.5400740000  2
| 33>       2       5.2690479000     27.3965908000  2
| 34>       3       3.8857911000    -30.3649964000  2
| 35>     d 3
| 36>       1       8.1017205000    127.8670076000  2
| 37>       2       4.0508603000     16.6083115000  2
| 38>       3       3.8857911000    -30.3649964000  2
| 39>     f 1
| 40>       1       3.8857911000     30.3649964000  2
| 41>   end
| 42>   NewGTO 80
| 43>     s 3
| 44>      1      48.0137869900      0.0284151479
| 45>      2      21.2398750950     -0.8616326732
| 46>      3      15.8761008790      1.8158357216
| 47>     s 1
| 48>      1       5.4865939429      1.0000000000
| 49>     s 1
| 50>      1       1.5521766895      1.0000000000
| 51>     s 1
| 52>      1       0.7474254119      1.0000000000
| 53>     s 1
| 54>      1       0.2026883848      1.0000000000
| 55>     s 1
| 56>      1       0.0933762292      1.0000000000
| 57>     s 1
| 58>      1       0.0412487056      1.0000000000
| 59>     p 4
| 60>      1      17.5000000000     -0.2060509577
| 61>      2      15.2525948550      0.3652916199
| 62>      3       6.4404715169     -0.7215344055
| 63>      4       1.8180159920      1.2955770587
| 64>     p 1
| 65>      1       0.9006798180      1.0000000000
| 66>     p 1
| 67>      1       0.4130454012      1.0000000000
| 68>     p 1
| 69>      1       0.1184570265      1.0000000000
| 70>     p 1
| 71>      1       0.0360876193      1.0000000000
| 72>     d 4
| 73>      1      11.8886489870      0.0229388386
| 74>      2       6.7773660954     -0.1263953757
| 75>      3       2.0934941340      0.4162731027
| 76>      4       1.0817087176      0.6697660125
| 77>     d 1
| 78>      1       0.5332913606      1.0000000000
| 79>     d 1
| 80>      1       0.2498410183      1.0000000000
| 81>     d 1
| 82>      1       0.1087977006      1.0000000000
| 83>   end
| 84>   NewAuxGTO 80
| 85>     S 1
| 86>      1 1310.72 1.0
| 87>     S 1
| 88>      1  655.36 1.0
| 89>     S 1
| 90>      1  327.68 1.0
| 91>     S 1
| 92>      1  163.84 1.0
| 93>     S 1
| 94>      1   81.82 1.0
| 95>     S 1
| 96>      1   40.96 1.0
| 97>     S 1
| 98>      1   20.48 1.0
| 99>     S 1
|100>      1   10.24 1.0
|101>     S 1
|102>      1    5.12 1.0
|103>     S 1
|104>      1    2.56 1.0
|105>     S 1
|106>      1    1.28 1.0
|107>     S 1
|108>      1    0.64 1.0
|109>     S 1
|110>      1    0.32 1.0
|111>     S 1
|112>      1    0.16 1.0
|113>     S 1
|114>      1    0.08 1.0
|115>     S 1
|116>      1    0.04 1.0
|117>     S 1
|118>      1    0.02 1.0
|119>     S 1
|120>      1    0.01 1.0
|121>   end
|122> end
|123>
|124> * xyz 0 1
|125> 80  0.0 0.0 0.0
|126> *
|127>
|128>
|129>                          ****END OF INPUT****

CARTESIAN COORDINATES (ANGSTROEM)
---------------------------------
  Hg     0.000000    0.000000    0.000000

 Total Charge           Charge          ....    0
 Multiplicity           Mult            ....    1
 Number of Electrons    NEL             ....   20
 Basis Dimension        Dim             ....   42

ORBITAL ENERGIES
----------------

  NO   OCC          E(Eh)            E(eV)
   0   2.0000      -4.835479      -131.5801
   1   2.0000      -3.031835       -82.5004
   2   2.0000      -3.031835       -82.5004
   3   2.0000      -3.031835       -82.5004
   4   2.0000      -0.604273       -16.4431
   5   2.0000      -0.604427       -16.4473
   6   2.0000      -0.604277       -16.4432
   7   2.0000      -0.604277       -16.4432
   8   2.0000      -0.604276       -16.4432
   9   2.0000      -0.535199       -14.5635
  10   0.0000       0.048654         1.3240
  11   0.0000       0.048654         1.3240
  12   0.0000       0.048655         1.3240
  13   0.0000       0.123744         3.3672
  14   0.0000       0.249131         6.7792

CleanUpVectors: The d-vectors have cracked symmetry at i=4
CleanUpVectors: The d-vectors have cracked symmetry at i=5
CleanUpVectors: The d-vectors have cracked symmetry at i=6
CleanUpVectors: The d-vectors have cracked symmetry at i=7
CleanUpVectors: The d-vectors have cracked symmetry at i=8
--------------------------
ATOM BASIS FOR ELEMENT Hg
--------------------------
 NewGTO Hg
 S 9
    1         48.013786990000        -0.005848340812
    2         21.239875095000         0.177339267976
    3         15.876100879000        -0.373731159054
    4          5.486593942900         0.843598036320
    5          1.552176689500        -0.946283374173
    6          0.747425411900        -0.563097534841
    7          0.202688384800         0.052939595953
    8          0.093376229200         0.131928404210
    9          0.041248705600         0.049747719478
 D 24
    1         48.013786990000         0.000000008540
    2         21.239875095000        -0.000000585406
    3         15.876100879000         0.000001650515
    4          5.486593942900        -0.000011697110
    5          1.552176689500         0.000063286313
    6          0.747425411900         0.000082164784
    7          0.202688384800        -0.000373002798
    8          0.093376229200        -0.001280403827
    9          0.041248705600        -0.001188214401
   10         11.888648987000         0.003066430338
   11          6.777366095400        -0.016896348651
   12          2.093494134000         0.055646778519
   13          1.081708717600         0.089533339327
   14         11.888648987000         0.003856262797
   15          6.777366095400        -0.021248407276
   16          2.093494134000         0.069979936965
   17          1.081708717600         0.112594791813
   18         11.888648987000        -0.004338255312
   19          6.777366095400         0.023904235939
   20          2.093494134000        -0.078726697134
   21          1.081708717600        -0.126667963111
   22         11.888648987000        -0.011568109212
   23          6.777366095400         0.063741479482
   24          2.093494134000        -0.209927485776
 S 9
    1         48.013786990000        -0.001673880270
    2         21.239875095000         0.050757079886
    3         15.876100879000        -0.106967297839
    4          5.486593942900         0.275029710993
    5          1.552176689500        -0.128373597905
    6          0.747425411900        -1.451847229861
    7          0.202688384800         4.967955915530
    8          0.093376229200        -5.575329581313
    9          0.041248705600         2.003121174367
 S 9
    1         48.013786990000         0.009532582667
    2         21.239875095000        -0.289056552315
    3         15.876100879000         0.609168186840
    4          5.486593942900        -1.546900715749
    5          1.552176689500         5.392310149118
    6          0.747425411900        -6.065408922877
    7          0.202688384800         4.153637470997
    8          0.093376229200        -2.979947150832
    9          0.041248705600         0.896955226282
 S 9
    1         48.013786990000         0.053956851051
    2         21.239875095000        -1.636133866760
    3         15.876100879000         3.448047425532
    4          5.486593942900        -3.802716241115
    5          1.552176689500         3.348494413702
    6          0.747425411900        -2.385999230250
    7          0.202688384800         1.161035292406
    8          0.093376229200        -0.816164787199
    9          0.041248705600         0.250112548302
 S 9
    1         48.013786990000         0.056603545861
    2         21.239875095000        -1.716389606842
    3         15.876100879000         3.617181262070
    4          5.486593942900        -1.631372501054
    5          1.552176689500         1.074564079706
    6          0.747425411900        -0.731366022475
    7          0.202688384800         0.351690854698
    8          0.093376229200        -0.247940737079
    9          0.041248705600         0.076219971116
 P 8
    1         17.500000000000        -0.086454400697
    2         15.252594855000         0.153268242141
    3          6.440471516900        -0.302739794594
    4          1.818015992000         0.543595329123
    5          0.900679818000         0.497500076625
    6          0.413045401200         0.138135420831
    7          0.118457026500         0.005987643438
    8          0.036087619300        -0.000403808300
 D 24
    1         11.888648987000        -0.009344735355
    2          6.777366095400         0.051490459332
    3          2.093494134000        -0.169579726687
    4          1.081708717600        -0.272846687926
    5         11.888648987000        -0.002227901954
    6          6.777366095400         0.012275970434
    7          2.093494134000        -0.040429930864
    8          1.081708717600        -0.065050067864
    9         11.888648987000         0.006865946420
   10          6.777366095400        -0.037832075655
   11          2.093494134000         0.124596927912
   12          1.081708717600         0.200471246007
   13         11.888648987000        -0.005842969320
   14          6.777366095400         0.032195365917
   15          2.093494134000        -0.106032873342
   16          1.081708717600        -0.170602458607
   17         11.888648987000         0.001854225084
   18          6.777366095400        -0.010216972196
   19          2.093494134000         0.033648784163
   20          1.081708717600         0.054139486430
   21          0.533291360600        -0.243290846468
   22          0.533291360600        -0.058003585067
   23          0.533291360600         0.178755401080
   24          0.533291360600        -0.152122119860
 P 8
    1         17.500000000000        -0.022306215322
    2         15.252594855000         0.039544943735
    3          6.440471516900        -0.078110298495
    4          1.818015992000         0.140253756449
    5          0.900679818000         0.169583393364
    6          0.413045401200         0.153109731526
    7          0.118457026500        -1.479241754168
    8          0.036087619300         1.015338885128
 P 8
    1         17.500000000000        -0.057090358281
    2         15.252594855000         0.101211029010
    3          6.440471516900        -0.199914905430
    4          1.818015992000         0.358964400301
    5          0.900679818000         1.300442984945
    6          0.413045401200        -2.431601143261
    7          0.118457026500         1.344494182717
    8          0.036087619300        -0.446349273564
 P 8
    1         17.500000000000        -0.573823847399
    2         15.252594855000         1.017287398678
    3          6.440471516900        -2.009375026530
    4          1.818015992000         3.608005615328
    5          0.900679818000        -4.253788339560
    6          0.413045401200         2.201220577179
    7          0.118457026500        -0.643201528693
    8          0.036087619300         0.203024439081
 D 7
    1         11.888648987000        -0.004592739642
    2          6.777366095400         0.025306470946
    3          2.093494134000        -0.083344846446
    4          1.081708717600        -0.134098372209
    5          0.533291360600         0.115568726988
    6          0.249841018300        -0.637722999454
    7          0.108797700600         1.354847957062
 D 7
    1         11.888648987000        -0.005873590452
    2          6.777366095400         0.032364091526
    3          2.093494134000        -0.106588557698
    4          1.081708717600        -0.171496531495
    5          0.533291360600        -1.027658409754
    6          0.249841018300         2.286321459207
    7          0.108797700600        -1.085037040399
 D 7
    1         11.888648987000        -0.036892060205
    2          6.777366095400         0.203279071418
    3          2.093494134000        -0.669483430897
    4          1.081708717600        -1.077170840581
    5          0.533291360600         2.769959353202
    6          0.249841018300        -1.946570437389
    7          0.108797700600         0.621474289531
 end
  // -----------------------------------------------
  // The basis set
  // -----------------------------------------------
  BAS[ATNO] = new BFNGauss[NSH];
  // Basis function   1 L = s
  InitBFNGauss(BAS[ATNO][  0]);
  BAS[ATNO][  0].l  = 0;
  BAS[ATNO][  0].ng = 9;
  BAS[ATNO][  0].a[  0] =        48.013786990000;     BAS[ATNO][  0].d[  0] =         0.005848340812;
  BAS[ATNO][  0].a[  1] =        21.239875095000;     BAS[ATNO][  0].d[  1] =        -0.177339267976;
  BAS[ATNO][  0].a[  2] =        15.876100879000;     BAS[ATNO][  0].d[  2] =         0.373731159054;
  BAS[ATNO][  0].a[  3] =         5.486593942900;     BAS[ATNO][  0].d[  3] =        -0.843598036320;
  BAS[ATNO][  0].a[  4] =         1.552176689500;     BAS[ATNO][  0].d[  4] =         0.946283374173;
  BAS[ATNO][  0].a[  5] =         0.747425411900;     BAS[ATNO][  0].d[  5] =         0.563097534841;
  BAS[ATNO][  0].a[  6] =         0.202688384800;     BAS[ATNO][  0].d[  6] =        -0.052939595953;
  BAS[ATNO][  0].a[  7] =         0.093376229200;     BAS[ATNO][  0].d[  7] =        -0.131928404210;
  BAS[ATNO][  0].a[  8] =         0.041248705600;     BAS[ATNO][  0].d[  8] =        -0.049747719478;

FINAL SINGLE POINT ENERGY      -152.554579203585

DIPOLE MOMENT
-------------
                                X             Y             Z
Electronic contribution:     -0.00000      -0.00000      -0.00000
Nuclear contribution   :      0.00000       0.00000       0.00000
                        -----------------------------------------
Total Dipole Moment    :     -0.00000      -0.00000      -0.00000
                        -----------------------------------------
Magnitude (a.u.)       :      0.00000
Magnitude (Debye)      :      0.00000

Rotational constants in cm-1:     0.000000     0.000000     0.000000
Rotational constants in MHz :     0.000000     0.000000     0.000000

                             ****ORCA TERMINATED NORMALLY****
TOTAL RUN TIME: 0 days 0 hours 0 minutes 1 seconds 526 msec
