                         Program Version 4.2.0 -  RELEASE  -
|  1> # input to generate an atomic fitting density for Tl
|  2> # this file is use internally by ORCA
|  3> #
|  4> # atomic ground state (S=2): 1s2 2s2 2p6 3s2 3p6 4s2 3d10 4p6 5s2 4d10 5p6 6s2 4f14 5d10 6p1
|  5> #
|  6> ! RHF AllowRHF def2-SVP def2/J  NoMulliken NoLoewdin NoMayer NoPrintMOs
|  7>
|  8> %output print[p_atomdensfit] 2 end
|  9>
| 10> %scf
| 11>   guess hcore
| 12>   maxiter 1000
| 13>   maxdisk 500000
| 14>   SCFMode Conventional
| 15>   lshift 1.000000
| 16>   hftyp rohf
| 17>   rohf_case sahf
| 18>   rohf_numop   2
| 19>   rohf_norb[1] 3
| 20>   rohf_nel[1]  1
| 21> end
| 22>
| 23> %basis
| 24>   NewECP 81
| 25>     N_core 60
| 26>     lmax f
| 27>     s 6
| 28>       1      12.1678050000    281.2846630000  2
| 29>       2       8.2949090000     62.4342510000  2
| 30>       3       5.6263990000    -15.8254880000  2
| 31>       4       5.5489520000    -21.1040210000  2
| 32>       5       2.8749460000     -2.9151270000  2
| 33>       6       2.8214510000     -3.8969030000  2
| 34>     p 8
| 35>       1       7.1514920000      4.6334080000  2
| 36>       2       5.1728650000      9.3417560000  2
| 37>       3       9.8910720000     72.2992530000  2
| 38>       4       9.0033910000    144.5580370000  2
| 39>       5       5.6263990000    -15.8254880000  2
| 40>       6       5.5489520000    -21.1040210000  2
| 41>       7       2.8749460000     -2.9151270000  2
| 42>       8       2.8214510000     -3.8969030000  2
| 43>     d 8
| 44>       1       7.1302180000     35.9430390000  2
| 45>       2       6.9269060000     53.9095930000  2
| 46>       3       5.4175700000     10.3819390000  2
| 47>       4       5.1386810000     15.5838220000  2
| 48>       5       5.6263990000    -15.8254880000  2
| 49>       6       5.5489520000    -21.1040210000  2
| 50>       7       2.8749460000     -2.9151270000  2
| 51>       8       2.8214510000     -3.8969030000  2
| 52>     f 4
| 53>       1       5.6263990000     15.8254880000  2
| 54>       2       5.5489520000     21.1040210000  2
| 55>       3       2.8749460000      2.9151270000  2
| 56>       4       2.8214510000      3.8969030000  2
| 57>   end
| 58>   NewGTO 81
| 59>     s 9
| 60>      1    9675.5500000000      0.0000194351
| 61>      2    1471.4800000000      0.0001384751
| 62>      3     323.6480000000      0.0005514712
| 63>      4      33.8079000000      0.0526351289
| 64>      5      21.1316000000     -0.4759098978
| 65>      6      13.2091000000      1.6364846086
| 66>      7       8.2561100000     -1.3888230384
| 67>      8       5.1001400000     -1.4876214055
| 68>      9       1.8194300000      1.8452273768
| 69>     s 1
| 70>      1       0.9680461018      1.0000000000
| 71>     s 3
| 72>      1      13.4329240810      0.3475210054
| 73>      2      11.1269567050     -0.5592101581
| 74>      3       2.0351129325      1.1382506236
| 75>     s 1
| 76>      1       0.4728802702      1.0000000000
| 77>     s 1
| 78>      1       0.2170324177      1.0000000000
| 79>     s 1
| 80>      1       0.0995516643      1.0000000000
| 81>     s 1
| 82>      1       0.0446744752      1.0000000000
| 83>     p 7
| 84>      1      42.5240000000      0.0016380010
| 85>      2      21.3957000000     -0.0236351802
| 86>      3      13.3737000000      0.1140354837
| 87>      4       6.6133700000     -0.3535959307
| 88>      5       2.0421700000      0.4848411404
| 89>      6       1.1144900000      0.4963347022
| 90>      7       0.5980060000      0.2093569340
| 91>     p 3
| 92>      1       9.0557032031     -0.0636983145
| 93>      2       3.9424773914      0.3031427740
| 94>      3       1.2382159385      0.8021593595
| 95>     p 1
| 96>      1       0.2994326074      1.0000000000
| 97>     p 1
| 98>      1       0.1425018236      1.0000000000
| 99>     p 1
|100>      1       0.0616550725      1.0000000000
|101>     p 1
|102>      1       0.0260548705      1.0000000000
|103>     s 1
|104>      1       0.0181834582      1.0000000000
|105>   end
|106>   NewAuxGTO 81
|107>     S 1
|108>      1 1310.72 1.0
|109>     S 1
|110>      1  655.36 1.0
|111>     S 1
|112>      1  327.68 1.0
|113>     S 1
|114>      1  163.84 1.0
|115>     S 1
|116>      1   81.82 1.0
|117>     S 1
|118>      1   40.96 1.0
|119>     S 1
|120>      1   20.48 1.0
|121>     S 1
|122>      1   10.24 1.0
|123>     S 1
|124>      1    5.12 1.0
|125>     S 1
|126>      1    2.56 1.0
|127>     S 1
|128>      1    1.28 1.0
|129>     S 1
|130>      1    0.64 1.0
|131>     S 1
|132>      1    0.32 1.0
|133>     S 1
|134>      1    0.16 1.0
|135>     S 1
|136>      1    0.08 1.0
|137>     S 1
|138>      1    0.04 1.0
|139>     S 1
|140>      1    0.02 1.0
|141>     S 1
|142>      1    0.01 1.0
|143>   end
|144> end
|145>
|146> * xyz 0 2
|147> 81  0.0 0.0 0.0
|148> *
|149>
|150>
|151>                          ****END OF INPUT****

CARTESIAN COORDINATES (ANGSTROEM)
---------------------------------
  Tl     0.000000    0.000000    0.000000

 Total Charge           Charge          ....    0
 Multiplicity           Mult            ....    2
 Number of Electrons    NEL             ....   21
 Basis Dimension        Dim             ....   26

ORBITAL ENERGIES
----------------

  NO   OCC          E(Eh)            E(eV)
   0   2.0000      -8.598091      -233.9660
   1   2.0000      -6.125199      -166.6751
   2   2.0000      -6.125199      -166.6751
   3   2.0000      -6.117310      -166.4605
   4   2.0000      -2.072713       -56.4014
   5   2.0000      -1.262815       -34.3629
   6   2.0000      -1.262815       -34.3629
   7   2.0000      -1.245631       -33.8953
   8   2.0000      -0.360973        -9.8226
   9   2.0000      -0.174659        -4.7527
  10   0.3333      -0.190809        -5.1922
  11   0.3333      -0.190809        -5.1922
  12   0.3333      -0.077841        -2.1182
  13   0.0000      -0.015747        -0.4285
  14   0.0000      -0.015747        -0.4285
  15   0.0000      -0.002281        -0.0621
  16   0.0000       0.114060         3.1037
  17   0.0000       0.351489         9.5645

CleanUpVectors: The p-vectors have cracked symmetry
CleanUpVectors: The p-vectors have cracked symmetry
CleanUpVectors: The p-vectors have cracked symmetry
CleanUpVectors: The p-vectors have cracked symmetry
CleanUpVectors: The p-vectors have cracked symmetry
CleanUpVectors: The p-vectors have cracked symmetry
CleanUpVectors: The p-vectors have cracked symmetry
CleanUpVectors: The p-vectors have cracked symmetry
CleanUpVectors: The p-vectors have cracked symmetry
CleanUpVectors: The p-vectors have cracked symmetry
CleanUpVectors: The p-vectors have cracked symmetry
CleanUpVectors: The p-vectors have cracked symmetry
CleanUpVectors: The p-vectors have cracked symmetry
CleanUpVectors: The p-vectors have cracked symmetry
CleanUpVectors: The p-vectors have cracked symmetry
CleanUpVectors: The p-vectors have cracked symmetry
CleanUpVectors: The p-vectors have cracked symmetry
--------------------------
ATOM BASIS FOR ELEMENT Tl
--------------------------
 NewGTO Tl
 S 18
    1       9675.549999999999         0.000008586006
    2       1471.480000000000         0.000061175300
    3        323.648000000000         0.000243628033
    4         33.807900000000         0.023253060001
    5         21.131600000000        -0.210246685814
    6         13.209100000000         0.722963457862
    7          8.256110000000        -0.613551939886
    8          5.100140000000        -0.657198918742
    9          1.819430000000         0.815181491999
   10          0.968046101800         0.696161122137
   11         13.432924081000         0.023859080355
   12         11.126956705000        -0.038392614806
   13          2.035112932500         0.078146680835
   14          0.472880270200        -0.140277092002
   15          0.217032417700         0.096154581471
   16          0.099551664300        -0.053469491692
   17          0.044674475200         0.022699457138
   18          0.018183458200        -0.005520555340
 P 32
    1         42.524000000000         0.000979822900
    2         21.395700000000        -0.014138142040
    3         13.373700000000         0.068213986630
    4          6.613370000000        -0.211514761079
    5          2.042170000000         0.290023297977
    6          1.114490000000         0.296898541064
    7          0.598006000000         0.125233573213
    8         42.524000000000        -0.001365537427
    9         21.395700000000         0.019703726168
   10         13.373700000000        -0.095066926728
   11          6.613370000000         0.294779110364
   12          2.042170000000        -0.404193113174
   13          1.114490000000        -0.413774846526
   14          0.598006000000        -0.174532695077
   15         42.524000000000        -0.000346836760
   16         21.395700000000         0.005004605811
   17         13.373700000000        -0.024146320849
   18          6.613370000000         0.074871790049
   19          2.042170000000        -0.102662165820
   20          1.114490000000        -0.105095857702
   21          0.598006000000        -0.044330058823
   22          9.055703203100        -0.001384152078
   23          3.942477391400         0.006587233962
   24          1.238215938500         0.017430768037
   25          9.055703203100         0.001929033776
   26          3.942477391400        -0.009180347306
   27          1.238215938500        -0.024292518729
   28          9.055703203100         0.000489960811
   29          3.942477391400        -0.002331742691
   30          1.238215938500        -0.006170126369
   31          0.299432607400        -0.119458104565
   32          0.299432607400         0.166483670500
 S 18
    1       9675.549999999999         0.000005454764
    2       1471.480000000000         0.000038865198
    3        323.648000000000         0.000154778999
    4         33.807900000000         0.014772870433
    5         21.131600000000        -0.133571540625
    6         13.209100000000         0.459304946989
    7          8.256110000000        -0.389794861911
    8          5.100140000000        -0.417524165643
    9          1.819430000000         0.517891862856
   10          0.968046101800         1.218833102518
   11         13.432924081000         0.088984131898
   12         11.126956705000        -0.143187979125
   13          2.035112932500         0.291453587118
   14          0.472880270200        -1.517048401572
   15          0.217032417700        -0.407903935665
   16          0.099551664300        -0.062810187951
   17          0.044674475200         0.028077285743
   18          0.018183458200        -0.007445910695
 P 32
    1         42.524000000000        -0.000789522467
    2         21.395700000000         0.011392243219
    3         13.373700000000        -0.054965519827
    4          6.613370000000         0.170434530630
    5          2.042170000000        -0.233695201273
    6          1.114490000000        -0.239235140058
    7          0.598006000000        -0.100910807174
    8         42.524000000000         0.000239882438
    9         21.395700000000        -0.003461331619
   10         13.373700000000         0.016700301081
   11          6.613370000000        -0.051783517831
   12          2.042170000000         0.071004153780
   13          1.114490000000         0.072687366200
   14          0.598006000000         0.030659964054
   15         42.524000000000         0.000444081445
   16         21.395700000000        -0.006407776905
   17         13.373700000000         0.030916368423
   18          6.613370000000        -0.095864039085
   19          2.042170000000         0.131446167781
   20          1.114490000000         0.134562208329
   21          0.598006000000         0.056759141046
   22          9.055703203100         0.009742835805
   23          3.942477391400        -0.046366537260
   24          1.238215938500        -0.122692523195
   25          9.055703203100        -0.002960188348
   26          3.942477391400         0.014087652309
   27          1.238215938500         0.037277953236
   28          9.055703203100        -0.005480037343
   29          3.942477391400         0.026079712390
   30          1.238215938500         0.069010668176
   31          0.299432607400         1.224128451267
   32          0.299432607400        -0.371929780015
 S 18
    1       9675.549999999999         0.000001215312
    2       1471.480000000000         0.000008659098
    3        323.648000000000         0.000034484491
    4         33.807900000000         0.003291369765
    5         21.131600000000        -0.029759506272
    6         13.209100000000         0.102332341056
    7          8.256110000000        -0.086845615342
    8          5.100140000000        -0.093023655848
    9          1.819430000000         0.115385403723
   10          0.968046101800         0.422162813951
   11         13.432924081000         0.023726551047
   12         11.126956705000        -0.038179356517
   13          2.035112932500         0.077712601844
   14          0.472880270200        -0.806349851180
   15          0.217032417700        -0.033135326062
   16          0.099551664300         0.036551329351
   17          0.044674475200         1.922955213570
   18          0.018183458200        -2.099956456549
 S 18
    1       9675.549999999999         0.000001739351
    2       1471.480000000000         0.000012392878
    3        323.648000000000         0.000049354110
    4         33.807900000000         0.004710599491
    5         21.131600000000        -0.042591724752
    6         13.209100000000         0.146457769280
    7          8.256110000000        -0.124293209395
    8          5.100140000000        -0.133135204228
    9          1.819430000000         0.165139277204
   10          0.968046101800         0.334210701445
   11         13.432924081000         0.057251192555
   12         11.126956705000        -0.092125218167
   13          2.035112932500         0.187517314392
   14          0.472880270200        -0.065949286541
   15          0.217032417700        -3.607162929829
   16          0.099551664300         7.667191513835
   17          0.044674475200        -6.681584882971
   18          0.018183458200         2.334954327384
 S 18
    1       9675.549999999999        -0.000005758074
    2       1471.480000000000        -0.000041026278
    3        323.648000000000        -0.000163385408
    4         33.807900000000        -0.015594308497
    5         21.131600000000         0.140998719259
    6         13.209100000000        -0.484844368580
    7          8.256110000000         0.411469210027
    8          5.100140000000         0.440740387807
    9          1.819430000000        -0.546688980568
   10          0.968046101800        -3.512001543188
   11         13.432924081000        -0.048832217236
   12         11.126956705000         0.078577903196
   13          2.035112932500        -0.159942279336
   14          0.472880270200        10.123465161496
   15          0.217032417700       -12.702879681589
   16          0.099551664300         9.638495639547
   17          0.044674475200        -4.447272141416
   18          0.018183458200         1.058115118275
 S 18
    1       9675.549999999999         0.000004308796
    2       1471.480000000000         0.000030700175
    3        323.648000000000         0.000122262143
    4         33.807900000000         0.011669301415
    5         21.131600000000        -0.105510068269
    6         13.209100000000         0.362811539689
    7          8.256110000000        -0.307904530400
    8          5.100140000000        -0.329808303584
    9          1.819430000000         0.409090181561
   10          0.968046101800        11.785378098160
   11         13.432924081000        -1.950898877374
   12         11.126956705000         3.139270584228
   13          2.035112932500        -6.389863718298
   14          0.472880270200       -11.908695312767
   15          0.217032417700         8.239421755108
   16          0.099551664300        -4.654385701776
   17          0.044674475200         1.949242361922
   18          0.018183458200        -0.465627746426
 S 18
    1       9675.549999999999         0.000022885878
    2       1471.480000000000         0.000163061898
    3        323.648000000000         0.000649387078
    4         33.807900000000         0.061980702860
    5         21.131600000000        -0.560409570185
    6         13.209100000000         1.927048881226
    7          8.256110000000        -1.635414026081
    8          5.100140000000        -1.751754431476
    9          1.819430000000         2.172854748150
   10          0.968046101800        -6.956491514089
   11         13.432924081000         0.960541947409
   12         11.126956705000        -1.545647042699
   13          2.035112932500         3.146104706315
   14          0.472880270200         5.659300986627
   15          0.217032417700        -3.604774846244
   16          0.099551664300         1.997487515619
   17          0.044674475200        -0.837415549181
   18          0.018183458200         0.201099198065
 P 32
    1         42.524000000000        -0.000490718898
    2         21.395700000000         0.007080721918
    3         13.373700000000        -0.034163206796
    4          6.613370000000         0.105931684689
    5          2.042170000000        -0.145250650106
    6          1.114490000000        -0.148693937370
    7          0.598006000000        -0.062719988536
    8         42.524000000000        -0.000151270045
    9         21.395700000000         0.002182718306
   10         13.373700000000        -0.010531222342
   11          6.613370000000         0.032654725042
   12          2.042170000000        -0.044775272435
   13          1.114490000000        -0.045836707445
   14          0.598006000000        -0.019334196245
   15         42.524000000000        -0.000790725602
   16         21.395700000000         0.011409603588
   17         13.373700000000        -0.055049280476
   18          6.613370000000         0.170694251760
   19          2.042170000000        -0.234051323835
   20          1.114490000000        -0.239599704801
   21          0.598006000000        -0.101064582754
   22          9.055703203100         0.006093543081
   23          3.942477391400        -0.028999410227
   24          1.238215938500        -0.076736608385
   25          9.055703203100         0.001878408471
   26          3.942477391400        -0.008939419496
   27          1.238215938500        -0.023654989108
   28          9.055703203100         0.009818901491
   29          3.942477391400        -0.046728536836
   30          1.238215938500        -0.123650426115
   31          0.299432607400         0.769479875227
   32          0.299432607400         0.237201492875
 P 32
    1         42.524000000000        -0.000100075805
    2         21.395700000000         0.001444022130
    3         13.373700000000        -0.006967146459
    4          6.613370000000         0.021603404103
    5          2.042170000000        -0.029622001196
    6          1.114490000000        -0.030324215329
    7          0.598006000000        -0.012790934664
    8         42.524000000000        -0.000312895612
    9         21.395700000000         0.004514859375
   10         13.373700000000        -0.021783382579
   11          6.613370000000         0.067544900823
   12          2.042170000000        -0.092615734232
   13          1.114490000000        -0.094811267111
   14          0.598006000000        -0.039991957248
   15         42.524000000000         0.000121964967
   16         21.395700000000        -0.001759867045
   17         13.373700000000         0.008491041236
   18          6.613370000000        -0.026328626241
   19          2.042170000000         0.036101097506
   20          1.114490000000         0.036956903997
   21          0.598006000000         0.015588642254
   22          9.055703203100         0.001495085909
   23          3.942477391400        -0.007115172407
   24          1.238215938500        -0.018827769058
   25          9.055703203100         0.004674514670
   26          3.942477391400        -0.022246198434
   27          1.238215938500        -0.058866639147
   28          9.055703203100        -0.001822099790
   29          3.942477391400         0.008671444280
   30          1.238215938500         0.022945888162
   31          0.299432607400         0.247264099948
   32          0.299432607400         0.773092473208
 P 32
    1         42.524000000000        -0.000109950983
    2         21.395700000000         0.001586513864
    3         13.373700000000        -0.007654643388
    4          6.613370000000         0.023735162646
    5          2.042170000000        -0.032545010634
    6          1.114490000000        -0.033316517133
    7          0.598006000000        -0.014053105390
    8         42.524000000000        -0.000033893722
    9         21.395700000000         0.000489062117
   10         13.373700000000        -0.002359636551
   11          6.613370000000         0.007316651409
   12          2.042170000000        -0.010032393772
   13          1.114490000000        -0.010270219996
   14          0.598006000000        -0.004332039973
   15         42.524000000000        -0.000177170795
   16         21.395700000000         0.002556447560
   17         13.373700000000        -0.012334398622
   18          6.613370000000         0.038245930290
   19          2.042170000000        -0.052441781276
   20          1.114490000000        -0.053684957243
   21          0.598006000000        -0.022644634761
   22          9.055703203100         0.001678984025
   23          3.942477391400        -0.007990350747
   24          1.238215938500        -0.021143616761
   25          9.055703203100         0.000517567165
   26          3.942477391400        -0.002463122411
   27          1.238215938500        -0.006517775996
   28          9.055703203100         0.002705450430
   29          3.942477391400        -0.012875344577
   30          1.238215938500        -0.034070012698
   31          0.299432607400         0.218854747714
   32          0.299432607400         0.067464627148
 P 32
    1         42.524000000000        -0.000348239264
    2         21.395700000000         0.005024842945
    3         13.373700000000        -0.024243961371
    4          6.613370000000         0.075174549242
    5          2.042170000000        -0.103077301007
    6          1.114490000000        -0.105520834013
    7          0.598006000000        -0.044509316363
    8         42.524000000000        -0.000107348972
    9         21.395700000000         0.001548968708
   10         13.373700000000        -0.007473494779
   11          6.613370000000         0.023173465454
   12          2.042170000000        -0.031774826695
   13          1.114490000000        -0.032528075344
   14          0.598006000000        -0.013720535946
   15         42.524000000000        -0.000561139388
   16         21.395700000000         0.008096839102
   17         13.373700000000        -0.039065789032
   18          6.613370000000         0.121133383952
   19          2.042170000000        -0.166094807425
   20          1.114490000000        -0.170032222745
   21          0.598006000000        -0.071720604417
   22          9.055703203100         0.005850371317
   23          3.942477391400        -0.027842146280
   24          1.238215938500        -0.073674321616
   25          9.055703203100         0.001803447829
   26          3.942477391400        -0.008582678865
   27          1.238215938500        -0.022711002115
   28          9.055703203100         0.009427063843
   29          3.942477391400        -0.044863766121
   30          1.238215938500        -0.118715974724
   31          0.299432607400         1.505875659465
   32          0.299432607400         0.464204413929
 P 32
    1         42.524000000000        -0.003110426625
    2         21.395700000000         0.044881226431
    3         13.373700000000        -0.216543826695
    4          6.613370000000         0.671449038959
    5          2.042170000000        -0.920672693051
    6          1.114490000000        -0.942498003681
    7          0.598006000000        -0.397551272311
    8         42.524000000000        -0.000958826687
    9         21.395700000000         0.013835181748
   10         13.373700000000        -0.066752257838
   11          6.613370000000         0.206982300339
   12          2.042170000000        -0.283808510862
   13          1.114490000000        -0.290536427260
   14          0.598006000000        -0.122549995712
   15         42.524000000000        -0.005012022108
   16         21.395700000000         0.072319886060
   17         13.373700000000        -0.348930412979
   18          6.613370000000         1.081947216108
   19          2.042170000000        -1.483536648943
   20          1.114490000000        -1.518705116997
   21          0.598006000000        -0.640598865111
   22          9.055703203100        -0.109063311375
   23          3.942477391400         0.519036571238
   24          1.238215938500         1.373445383664
   25          9.055703203100        -0.033620086948
   26          3.942477391400         0.159999310806
   27          1.238215938500         0.423381177730
   28          9.055703203100        -0.175740434902
   29          3.942477391400         0.836355614091
   30          1.238215938500         2.213117188514
   31          0.299432607400         0.680350518185
   32          0.299432607400         0.209726289144
 end
  // -----------------------------------------------
  // The basis set
  // -----------------------------------------------
  BAS[ATNO] = new BFNGauss[NSH];
  // Basis function   1 L = s
  InitBFNGauss(BAS[ATNO][  0]);
  BAS[ATNO][  0].l  = 0;
  BAS[ATNO][  0].ng = 18;
  BAS[ATNO][  0].a[  0] =      9675.549999999999;     BAS[ATNO][  0].d[  0] =         0.000008586006;
  BAS[ATNO][  0].a[  1] =      1471.480000000000;     BAS[ATNO][  0].d[  1] =         0.000061175300;
  BAS[ATNO][  0].a[  2] =       323.648000000000;     BAS[ATNO][  0].d[  2] =         0.000243628033;
  BAS[ATNO][  0].a[  3] =        33.807900000000;     BAS[ATNO][  0].d[  3] =         0.023253060001;
  BAS[ATNO][  0].a[  4] =        21.131600000000;     BAS[ATNO][  0].d[  4] =        -0.210246685814;
  BAS[ATNO][  0].a[  5] =        13.209100000000;     BAS[ATNO][  0].d[  5] =         0.722963457862;
  BAS[ATNO][  0].a[  6] =         8.256110000000;     BAS[ATNO][  0].d[  6] =        -0.613551939886;
  BAS[ATNO][  0].a[  7] =         5.100140000000;     BAS[ATNO][  0].d[  7] =        -0.657198918742;
  BAS[ATNO][  0].a[  8] =         1.819430000000;     BAS[ATNO][  0].d[  8] =         0.815181491999;
  BAS[ATNO][  0].a[  9] =         0.968046101800;     BAS[ATNO][  0].d[  9] =         0.696161122137;
  BAS[ATNO][  0].a[ 10] =        13.432924081000;     BAS[ATNO][  0].d[ 10] =         0.023859080355;
  BAS[ATNO][  0].a[ 11] =        11.126956705000;     BAS[ATNO][  0].d[ 11] =        -0.038392614806;
  BAS[ATNO][  0].a[ 12] =         2.035112932500;     BAS[ATNO][  0].d[ 12] =         0.078146680835;
  BAS[ATNO][  0].a[ 13] =         0.472880270200;     BAS[ATNO][  0].d[ 13] =        -0.140277092002;
  BAS[ATNO][  0].a[ 14] =         0.217032417700;     BAS[ATNO][  0].d[ 14] =         0.096154581471;
  BAS[ATNO][  0].a[ 15] =         0.099551664300;     BAS[ATNO][  0].d[ 15] =        -0.053469491692;
  BAS[ATNO][  0].a[ 16] =         0.044674475200;     BAS[ATNO][  0].d[ 16] =         0.022699457138;
  BAS[ATNO][  0].a[ 17] =         0.018183458200;     BAS[ATNO][  0].d[ 17] =        -0.005520555340;

FINAL SINGLE POINT ENERGY      -157.302021138499

DIPOLE MOMENT
-------------
                                X             Y             Z
Electronic contribution:      0.00000       0.00000      -0.00000
Nuclear contribution   :      0.00000       0.00000       0.00000
                        -----------------------------------------
Total Dipole Moment    :      0.00000       0.00000      -0.00000
                        -----------------------------------------
Magnitude (a.u.)       :      0.00000
Magnitude (Debye)      :      0.00000

Rotational constants in cm-1:     0.000000     0.000000     0.000000
Rotational constants in MHz :     0.000000     0.000000     0.000000

                             ****ORCA TERMINATED NORMALLY****
TOTAL RUN TIME: 0 days 0 hours 0 minutes 1 seconds 274 msec
