                         Program Version 4.2.0 -  RELEASE  -
|  1> #
|  2> # 81_Tl CCSD(T)/Def2-QZVPPD
|  3> #
|  4> ! CCSD(T) Def2-QZVPPD tightscf slowconv
|  5>
|  6> *xyz 0 2
|  7>  Tl 0.0 0.0 0.0
|  8> *
|  9>
| 10> %maxcore 5000
| 11>
| 12> %pal
| 13> nprocs 24
| 14> end
| 15>
| 16>
| 17>                          ****END OF INPUT****

CARTESIAN COORDINATES (ANGSTROEM)
---------------------------------
  Tl     0.000000    0.000000    0.000000

 Total Charge           Charge          ....    0
 Multiplicity           Mult            ....    2
 Number of Electrons    NEL             ....   21
 Basis Dimension        Dim             ....   88

ORBITAL ENERGIES
----------------
                 SPIN UP ORBITALS
  NO   OCC          E(Eh)            E(eV)
   0   1.0000      -5.643309      -153.5622
   1   1.0000      -3.468973       -94.3955
   2   1.0000      -3.468973       -94.3955
   3   1.0000      -3.464739       -94.2803
   4   1.0000      -0.846351       -23.0304
   5   1.0000      -0.846351       -23.0304
   6   1.0000      -0.839311       -22.8388
   7   1.0000      -0.839311       -22.8388
   8   1.0000      -0.837201       -22.7814
   9   1.0000      -0.473400       -12.8819
  10   1.0000      -0.192953        -5.2505
  11   0.0000       0.012421         0.3380
  12   0.0000       0.012421         0.3380
  13   0.0000       0.030980         0.8430
  14   0.0000       0.074871         2.0373
  15   0.0000       0.074871         2.0373

                 SPIN DOWN ORBITALS
  NO   OCC          E(Eh)            E(eV)
   0   1.0000      -5.642827      -153.5491
   1   1.0000      -3.471360       -94.4605
   2   1.0000      -3.471360       -94.4605
   3   1.0000      -3.460838       -94.1742
   4   1.0000      -0.847073       -23.0500
   5   1.0000      -0.847073       -23.0500
   6   1.0000      -0.835812       -22.7436
   7   1.0000      -0.835812       -22.7436
   8   1.0000      -0.832449       -22.6521
   9   1.0000      -0.422775       -11.5043
  10   0.0000       0.021187         0.5765
  11   0.0000       0.021187         0.5765
  12   0.0000       0.034622         0.9421
  13   0.0000       0.042640         1.1603
  14   0.0000       0.075524         2.0551

E(0)                                       ...   -171.515555456
E(0)                                       ...   -171.515555456
E(CORR)                                    ...     -0.389181046
E(TOT)                                     ...   -171.904736503
E(CCSD(T))                                 ...   -171.915476851

MULLIKEN ATOMIC CHARGES AND SPIN DENSITIES
------------------------------------------
   0 Tl:   -0.000000    1.000000
Sum of atomic charges       :   -0.0000000

LOEWDIN ATOMIC CHARGES AND SPIN DENSITIES
-----------------------------------------
   0 Tl:   -0.000000    1.000000

FINAL SINGLE POINT ENERGY      -171.915476850911

DIPOLE MOMENT
-------------
                                X             Y             Z
Electronic contribution:     -0.00000       0.00000      -0.00000
Nuclear contribution   :      0.00000       0.00000       0.00000
                        -----------------------------------------
Total Dipole Moment    :     -0.00000       0.00000      -0.00000
                        -----------------------------------------
Magnitude (a.u.)       :      0.00000
Magnitude (Debye)      :      0.00000

Rotational constants in cm-1:     0.000000     0.000000     0.000000
Rotational constants in MHz :     0.000000     0.000000     0.000000

                             ****ORCA TERMINATED NORMALLY****
TOTAL RUN TIME: 0 days 0 hours 0 minutes 28 seconds 675 msec
