                         Program Version 4.2.0 -  RELEASE  -
|  1> #
|  2> # 82_Pb CCSD(T)/Def2-QZVPPD
|  3> #
|  4> ! CCSD(T) Def2-QZVPPD tightscf slowconv
|  5>
|  6> *xyz 0 3
|  7>  Pb 0.0 0.0 0.0
|  8> *
|  9>
| 10> %maxcore 5000
| 11>
| 12> %pal
| 13> nprocs 24
| 14> end
| 15>
| 16>
| 17>                          ****END OF INPUT****

CARTESIAN COORDINATES (ANGSTROEM)
---------------------------------
  Pb     0.000000    0.000000    0.000000

 Total Charge           Charge          ....    0
 Multiplicity           Mult            ....    3
 Number of Electrons    NEL             ....   22
 Basis Dimension        Dim             ....   88

ORBITAL ENERGIES
----------------
                 SPIN UP ORBITALS
  NO   OCC          E(Eh)            E(eV)
   0   1.0000      -6.173856      -167.9992
   1   1.0000      -3.858588      -104.9975
   2   1.0000      -3.853654      -104.8633
   3   1.0000      -3.853654      -104.8633
   4   1.0000      -1.081328       -29.4244
   5   1.0000      -1.078302       -29.3421
   6   1.0000      -1.078302       -29.3421
   7   1.0000      -1.069952       -29.1149
   8   1.0000      -1.069952       -29.1149
   9   1.0000      -0.623221       -16.9587
  10   1.0000      -0.255127        -6.9424
  11   1.0000      -0.255127        -6.9424
  12   0.0000      -0.014782        -0.4022
  13   0.0000       0.036314         0.9881
  14   0.0000       0.092390         2.5141
  15   0.0000       0.092596         2.5197
  16   0.0000       0.092596         2.5197

                 SPIN DOWN ORBITALS
  NO   OCC          E(Eh)            E(eV)
   0   1.0000      -6.169360      -167.8768
   1   1.0000      -3.862195      -105.0957
   2   1.0000      -3.847948      -104.7080
   3   1.0000      -3.847948      -104.7080
   4   1.0000      -1.078419       -29.3453
   5   1.0000      -1.073342       -29.2071
   6   1.0000      -1.073342       -29.2071
   7   1.0000      -1.059189       -28.8220
   8   1.0000      -1.059189       -28.8220
   9   1.0000      -0.503294       -13.6953
  10   0.0000       0.008571         0.2332
  11   0.0000       0.038550         1.0490
  12   0.0000       0.038550         1.0490
  13   0.0000       0.043529         1.1845
  14   0.0000       0.097547         2.6544

E(0)                                       ...   -191.836207410
E(0)                                       ...   -191.836207410
E(CORR)                                    ...     -0.409149698
E(TOT)                                     ...   -192.245357107
E(CCSD(T))                                 ...   -192.255286227

MULLIKEN ATOMIC CHARGES AND SPIN DENSITIES
------------------------------------------
   0 Pb:    0.000000    2.000000
Sum of atomic charges       :    0.0000000

LOEWDIN ATOMIC CHARGES AND SPIN DENSITIES
-----------------------------------------
   0 Pb:    0.000000    2.000000

FINAL SINGLE POINT ENERGY      -192.255286227133

DIPOLE MOMENT
-------------
                                X             Y             Z
Electronic contribution:     -0.00000       0.00000      -0.00000
Nuclear contribution   :      0.00000       0.00000       0.00000
                        -----------------------------------------
Total Dipole Moment    :     -0.00000       0.00000      -0.00000
                        -----------------------------------------
Magnitude (a.u.)       :      0.00000
Magnitude (Debye)      :      0.00000

Rotational constants in cm-1:     0.000000     0.000000     0.000000
Rotational constants in MHz :     0.000000     0.000000     0.000000

                             ****ORCA TERMINATED NORMALLY****
TOTAL RUN TIME: 0 days 0 hours 0 minutes 37 seconds 925 msec
