                         Program Version 4.2.0 -  RELEASE  -
|  1> # input to generate an atomic fitting density for Pb
|  2> # this file is use internally by ORCA
|  3> #
|  4> # atomic ground state (S=3): 1s2 2s2 2p6 3s2 3p6 4s2 3d10 4p6 5s2 4d10 5p6 6s2 4f14 5d10 6p2
|  5> #
|  6> ! RHF AllowRHF def2-SVP def2/J  NoMulliken NoLoewdin NoMayer NoPrintMOs
|  7>
|  8> %output print[p_atomdensfit] 2 end
|  9>
| 10> %scf
| 11>   guess hcore
| 12>   maxiter 1000
| 13>   maxdisk 500000
| 14>   SCFMode Conventional
| 15>   lshift 1.000000
| 16>   hftyp rohf
| 17>   rohf_case sahf
| 18>   rohf_numop   2
| 19>   rohf_norb[1] 3
| 20>   rohf_nel[1]  2
| 21> end
| 22>
| 23> %basis
| 24>   NewECP 82
| 25>     N_core 60
| 26>     lmax f
| 27>     s 4
| 28>       1      12.2963030000    281.2854990000  2
| 29>       2       8.6326340000     62.5202170000  2
| 30>       3       3.8875120000    -12.2098920000  2
| 31>       4       3.8119630000    -16.1902910000  2
| 32>     p 6
| 33>       1      10.2417900000     72.2768970000  2
| 34>       2       8.9241760000    144.5910830000  2
| 35>       3       6.5813420000      4.7586930000  2
| 36>       4       6.2554030000      9.9406210000  2
| 37>       5       3.8875120000    -12.2098920000  2
| 38>       6       3.8119630000    -16.1902910000  2
| 39>     d 6
| 40>       1       7.7543360000     35.8485070000  2
| 41>       2       7.7202810000     53.7243420000  2
| 42>       3       4.9702640000     10.1152560000  2
| 43>       4       4.5637890000     14.8337310000  2
| 44>       5       3.8875120000    -12.2098920000  2
| 45>       6       3.8119630000    -16.1902910000  2
| 46>     f 2
| 47>       1       3.8875120000     12.2098920000  2
| 48>       2       3.8119630000     16.1902910000  2
| 49>   end
| 50>   NewGTO 82
| 51>     s 9
| 52>      1    9368.3300000000      0.0000341361
| 53>      2    1366.9300000000      0.0002511440
| 54>      3     299.6820000000      0.0009241123
| 55>      4      34.8597000000      0.0567487835
| 56>      5      21.7889000000     -0.4960361570
| 57>      6      13.6200000000      1.7048871659
| 58>      7       8.5129500000     -1.4796549163
| 59>      8       5.3033200000     -1.4907515784
| 60>      9       1.9281600000      1.8658460662
| 61>     s 1
| 62>      1       1.0373400312      1.0000000000
| 63>     s 3
| 64>      1      13.5599442130      0.3521198601
| 65>      2      11.0396200450     -0.5903682976
| 66>      3       2.1371722788      1.1586522628
| 67>     s 1
| 68>      1       0.5111168569      1.0000000000
| 69>     s 1
| 70>      1       0.2467398756      1.0000000000
| 71>     s 1
| 72>      1       0.1157797674      1.0000000000
| 73>     s 1
| 74>      1       0.0528741678      1.0000000000
| 75>     p 7
| 76>      1      59.0901000000      0.0007547721
| 77>      2      20.9197000000     -0.0222236107
| 78>      3      13.0777000000      0.1339414763
| 79>      4       6.8991000000     -0.3924435394
| 80>      5       2.1962700000      0.4592545737
| 81>      6       1.3048600000      0.4593304726
| 82>      7       0.7795720000      0.2750775330
| 83>     p 3
| 84>      1       9.1373183134     -0.0614234096
| 85>      2       3.9570574249      0.3028554391
| 86>      3       1.2246639098      0.8025637712
| 87>     p 1
| 88>      1       0.4260156424      1.0000000000
| 89>     p 1
| 90>      1       0.2037858629      1.0000000000
| 91>     p 1
| 92>      1       0.0881686479      1.0000000000
| 93>     p 1
| 94>      1       0.0370947014      1.0000000000
| 95>     s 1
| 96>      1       0.0236757148      1.0000000000
| 97>   end
| 98>   NewAuxGTO 82
| 99>     S 1
|100>      1 1310.72 1.0
|101>     S 1
|102>      1  655.36 1.0
|103>     S 1
|104>      1  327.68 1.0
|105>     S 1
|106>      1  163.84 1.0
|107>     S 1
|108>      1   81.82 1.0
|109>     S 1
|110>      1   40.96 1.0
|111>     S 1
|112>      1   20.48 1.0
|113>     S 1
|114>      1   10.24 1.0
|115>     S 1
|116>      1    5.12 1.0
|117>     S 1
|118>      1    2.56 1.0
|119>     S 1
|120>      1    1.28 1.0
|121>     S 1
|122>      1    0.64 1.0
|123>     S 1
|124>      1    0.32 1.0
|125>     S 1
|126>      1    0.16 1.0
|127>     S 1
|128>      1    0.08 1.0
|129>     S 1
|130>      1    0.04 1.0
|131>     S 1
|132>      1    0.02 1.0
|133>     S 1
|134>      1    0.01 1.0
|135>   end
|136> end
|137>
|138> * xyz 0 3
|139> 82  0.0 0.0 0.0
|140> *
|141>
|142>
|143>                          ****END OF INPUT****

CARTESIAN COORDINATES (ANGSTROEM)
---------------------------------
  Pb     0.000000    0.000000    0.000000

 Total Charge           Charge          ....    0
 Multiplicity           Mult            ....    3
 Number of Electrons    NEL             ....   22
 Basis Dimension        Dim             ....   26

ORBITAL ENERGIES
----------------

  NO   OCC          E(Eh)            E(eV)
   0   2.0000      -9.295247      -252.9365
   1   2.0000      -6.668627      -181.4626
   2   2.0000      -6.668627      -181.4626
   3   2.0000      -6.660343      -181.2371
   4   2.0000      -2.327736       -63.3409
   5   2.0000      -1.472833       -40.0778
   6   2.0000      -1.472833       -40.0778
   7   2.0000      -1.458003       -39.6743
   8   2.0000      -0.437575       -11.9070
   9   2.0000      -0.223448        -6.0803
  10   0.6667      -0.253091        -6.8870
  11   0.6667      -0.253091        -6.8870
  12   0.6667      -0.079311        -2.1582
  13   0.0000       0.066527         1.8103
  14   0.0000       0.066527         1.8103
  15   0.0000       0.083481         2.2716
  16   0.0000       0.214660         5.8412
  17   0.0000       0.725487        19.7415

CleanUpVectors: The p-vectors have cracked symmetry
CleanUpVectors: The p-vectors have cracked symmetry
CleanUpVectors: The p-vectors have cracked symmetry
CleanUpVectors: The p-vectors have cracked symmetry
CleanUpVectors: The p-vectors have cracked symmetry
CleanUpVectors: The p-vectors have cracked symmetry
CleanUpVectors: The p-vectors have cracked symmetry
CleanUpVectors: The p-vectors have cracked symmetry
CleanUpVectors: The p-vectors have cracked symmetry
CleanUpVectors: The p-vectors have cracked symmetry
CleanUpVectors: The p-vectors have cracked symmetry
CleanUpVectors: The p-vectors have cracked symmetry
CleanUpVectors: The p-vectors have cracked symmetry
CleanUpVectors: The p-vectors have cracked symmetry
CleanUpVectors: The p-vectors have cracked symmetry
CleanUpVectors: The p-vectors have cracked symmetry
CleanUpVectors: The p-vectors have cracked symmetry
--------------------------
ATOM BASIS FOR ELEMENT Pb
--------------------------
 NewGTO Pb
 S 18
    1       9368.330000000000         0.000014980548
    2       1366.930000000000         0.000110213963
    3        299.682000000000         0.000405544543
    4         34.859700000000         0.024904072234
    5         21.788900000000        -0.217684318898
    6         13.620000000000         0.748185784986
    7          8.512950000000        -0.649343133788
    8          5.303320000000        -0.654212878255
    9          1.928160000000         0.818822225672
   10          1.037340031200         0.714110451377
   11         13.559944213000         0.024458682851
   12         11.039620045000        -0.041007715248
   13          2.137172278800         0.080481425336
   14          0.511116856900        -0.164945688313
   15          0.246739875600         0.119656744620
   16          0.115779767400        -0.065965474534
   17          0.052874167800         0.028729172971
   18          0.023675714800        -0.007472151699
 P 32
    1         59.090100000000        -0.000757518646
    2         20.919700000000         0.022304480376
    3         13.077700000000        -0.134428877016
    4          6.899100000000         0.393871605355
    5          2.196270000000        -0.460925758866
    6          1.304860000000        -0.461001933955
    7          0.779572000000        -0.276078514849
    8         59.090100000000         0.000087091749
    9         20.919700000000        -0.002564341121
   10         13.077700000000         0.015455257927
   11          6.899100000000        -0.045283330381
   12          2.196270000000         0.052992531414
   13          1.304860000000         0.053001289247
   14          0.779572000000         0.031740685109
   15         59.090100000000        -0.000189422860
   16         20.919700000000         0.005577392033
   17         13.077700000000        -0.033614885216
   18          6.899100000000         0.098490362322
   19          2.196270000000        -0.115257724540
   20          1.304860000000        -0.115276772656
   21          0.779572000000        -0.069035372408
   22          9.137318313400         0.002980938784
   23          3.957057424900        -0.014697873830
   24          1.224663909800        -0.038949213145
   25          9.137318313400        -0.000342717865
   26          3.957057424900         0.001689811267
   27          1.224663909800         0.004477982325
   28          9.137318313400         0.000745404688
   29          3.957057424900        -0.003675306621
   30          1.224663909800        -0.009739524410
   31          0.426015642400         0.180132759215
   32          0.426015642400        -0.020709823042
 S 18
    1       9368.330000000000         0.000009620997
    2       1366.930000000000         0.000070783007
    3        299.682000000000         0.000260453951
    4         34.859700000000         0.015994208557
    5         21.788900000000        -0.139803979181
    6         13.620000000000         0.480509346917
    7          8.512950000000        -0.417029368110
    8          5.303320000000        -0.420156877053
    9          1.928160000000         0.525874376117
   10          1.037340031200         1.291985489062
   11         13.559944213000         0.093764963204
   12         11.039620045000        -0.157207439778
   13          2.137172278800         0.308534107554
   14          0.511116856900        -1.630337785814
   15          0.246739875600        -0.316318212120
   16          0.115779767400        -0.125385210324
   17          0.052874167800         0.054007268006
   18          0.023675714800        -0.014316093996
 P 32
    1         59.090100000000        -0.000492593089
    2         20.919700000000         0.014503976825
    3         13.077700000000        -0.087415321224
    4          6.899100000000         0.256123637029
    5          2.196270000000        -0.299727068811
    6          1.304860000000        -0.299776603331
    7          0.779572000000        -0.179526100301
    8         59.090100000000        -0.000054868133
    9         20.919700000000         0.001615544663
   10         13.077700000000        -0.009736871301
   11          6.899100000000         0.028528670445
   12          2.196270000000        -0.033385496429
   13          1.304860000000        -0.033391013897
   14          0.779572000000        -0.019996752393
   15         59.090100000000        -0.000007337433
   16         20.919700000000         0.000216044361
   17         13.077700000000        -0.001302097171
   18          6.899100000000         0.003815096238
   19          2.196270000000        -0.004464592280
   20          1.304860000000        -0.004465330123
   21          0.779572000000        -0.002674135655
   22          9.137318313400         0.015800929340
   23          3.957057424900        -0.077908364655
   24          1.224663909800        -0.206456357962
   25          9.137318313400         0.001760007437
   26          3.957057424900        -0.008677926356
   27          1.224663909800        -0.022996414801
   28          9.137318313400         0.000235363150
   29          3.957057424900        -0.001160486054
   30          1.224663909800        -0.003075276002
   31          0.426015642400         1.247369826210
   32          0.426015642400         0.138939939739
 S 18
    1       9368.330000000000         0.000002189425
    2       1366.930000000000         0.000016107905
    3        299.682000000000         0.000059270830
    4         34.859700000000         0.003639760539
    5         21.788900000000        -0.031814828777
    6         13.620000000000         0.109348265248
    7          8.512950000000        -0.094902291189
    8          5.303320000000        -0.095614010284
    9          1.928160000000         0.119671867229
   10          1.037340031200         0.475134157936
   11         13.559944213000         0.025160109339
   12         11.039620045000        -0.042183735146
   13          2.137172278800         0.082789472908
   14          0.511116856900        -0.945700187643
   15          0.246739875600         0.134622152696
   16          0.115779767400        -0.259635268231
   17          0.052874167800         2.482768415626
   18          0.023675714800        -2.439464632894
 S 18
    1       9368.330000000000         0.000003064191
    2       1366.930000000000         0.000022543678
    3        299.682000000000         0.000082951973
    4         34.859700000000         0.005093995148
    5         21.788900000000        -0.044526166399
    6         13.620000000000         0.153037411828
    7          8.512950000000        -0.132819674708
    8          5.303320000000        -0.133815754966
    9          1.928160000000         0.167485719027
   10          1.037340031200         0.358651650604
   11         13.559944213000         0.063030116162
   12         11.039620045000        -0.105677033854
   13          2.137172278800         0.207400930738
   14          0.511116856900         0.049500114196
   15          0.246739875600        -4.224567550911
   16          0.115779767400         8.693600339085
   17          0.052874167800        -7.721301549740
   18          0.023675714800         2.811197415172
 S 18
    1       9368.330000000000        -0.000010396793
    2       1366.930000000000        -0.000076490643
    3        299.682000000000        -0.000281455834
    4         34.859700000000        -0.017283912551
    5         21.788900000000         0.151077169081
    6         13.620000000000        -0.519255548192
    7          8.512950000000         0.450656817686
    8          5.303320000000         0.454036515462
    9          1.928160000000        -0.568278617685
   10          1.037340031200        -3.863964410240
   11         13.559944213000        -0.056825510644
   12         11.039620045000         0.095274319289
   13          2.137172278800        -0.186984643450
   14          0.511116856900        11.699793274924
   15          0.246739875600       -14.900110799292
   16          0.115779767400        11.213438698615
   17          0.052874167800        -5.354155101097
   18          0.023675714800         1.375363895784
 S 18
    1       9368.330000000000         0.000014302291
    2       1366.930000000000         0.000105223932
    3        299.682000000000         0.000387183168
    4         34.859700000000         0.023776519143
    5         21.788900000000        -0.207828475876
    6         13.620000000000         0.714311036061
    7          8.512950000000        -0.619943570117
    8          5.303320000000        -0.624592832754
    9          1.928160000000         0.781749351708
   10          1.037340031200        12.501020568254
   11         13.559944213000        -2.058230097299
   12         11.039620045000         3.450852781398
   13          2.137172278800        -6.772617025695
   14          0.511116856900       -13.505550294721
   15          0.246739875600         9.851814998859
   16          0.115779767400        -5.526870769337
   17          0.052874167800         2.382157919590
   18          0.023675714800        -0.610822900354
 S 18
    1       9368.330000000000         0.000036577106
    2       1366.930000000000         0.000269102820
    3        299.682000000000         0.000990193779
    4         34.859700000000         0.060806778964
    5         21.788900000000        -0.531506740704
    6         13.620000000000         1.826800341121
    7          8.512950000000        -1.585462170109
    8          5.303320000000        -1.597352332998
    9          1.928160000000         1.999269100260
   10          1.037340031200        -7.620148480222
   11         13.559944213000         1.090740039634
   12         11.039620045000        -1.828747575158
   13          2.137172278800         3.589085871752
   14          0.511116856900         6.617813276653
   15          0.246739875600        -4.446323291896
   16          0.115779767400         2.437698218744
   17          0.052874167800        -1.049789692076
   18          0.023675714800         0.270335612892
 P 32
    1         59.090100000000         0.000045054121
    2         20.919700000000        -0.001326579568
    3         13.077700000000         0.007995281604
    4          6.899100000000        -0.023425877465
    5          2.196270000000         0.027413985168
    6          1.304860000000         0.027418515752
    7          0.779572000000         0.016420024626
    8         59.090100000000        -0.000358357075
    9         20.919700000000         0.010551513653
   10         13.077700000000        -0.063593865773
   11          6.899100000000         0.186327659344
   12          2.196270000000        -0.218048766687
   13          1.304860000000        -0.218084802608
   14          0.779572000000        -0.130603635214
   15         59.090100000000        -0.000344938733
   16         20.919700000000         0.010156422206
   17         13.077700000000        -0.061212653629
   18          6.899100000000         0.179350796407
   19          2.196270000000        -0.209884136894
   20          1.304860000000        -0.209918823484
   21          0.779572000000        -0.125713305645
   22          9.137318313400        -0.001453709319
   23          3.957057424900         0.007167686996
   24          1.224663909800         0.018994296168
   25          9.137318313400         0.011562694087
   26          3.957057424900        -0.057011240793
   27          1.224663909800        -0.151079196554
   28          9.137318313400         0.011129739946
   29          3.957057424900        -0.054876508814
   30          1.224663909800        -0.145422178961
   31          0.426015642400        -0.115547758631
   32          0.426015642400         0.919058141609
 P 32
    1         59.090100000000        -0.000086105667
    2         20.919700000000         0.002535306790
    3         13.077700000000        -0.015280268308
    4          6.899100000000         0.044770617314
    5          2.196270000000        -0.052392532185
    6          1.304860000000        -0.052401190859
    7          0.779572000000        -0.031381306418
    8         59.090100000000         0.000125391297
    9         20.919700000000        -0.003692038123
   10         13.077700000000         0.022251876325
   11          6.899100000000        -0.065197169276
   12          2.196270000000         0.076296575625
   13          1.304860000000         0.076309184811
   14          0.779572000000         0.045698997900
   15         59.090100000000        -0.000141515779
   16         20.919700000000         0.004166809531
   17         13.077700000000        -0.025113318786
   18          6.899100000000         0.073581089165
   19          2.196270000000        -0.086107804931
   20          1.304860000000        -0.086122035573
   21          0.779572000000        -0.051575583367
   22          9.137318313400         0.003407874744
   23          3.957057424900        -0.016802932444
   24          1.224663909800        -0.044527596629
   25          9.137318313400        -0.004962714385
   26          3.957057424900         0.024469254538
   27          1.224663909800         0.064843270633
   28          9.137318313400         0.005600886261
   29          3.957057424900        -0.027615837005
   30          1.224663909800        -0.073181681523
   31          0.426015642400         0.331437378345
   32          0.426015642400        -0.482655369903
 P 32
    1         59.090100000000         0.000012946582
    2         20.919700000000        -0.000381200887
    3         13.077700000000         0.002297493882
    4          6.899100000000        -0.006731571547
    5          2.196270000000         0.007877579093
    6          1.304860000000         0.007878880985
    7          0.779572000000         0.004718396173
    8         59.090100000000        -0.000102976134
    9         20.919700000000         0.003032043056
   10         13.077700000000        -0.018274092746
   11          6.899100000000         0.053542411467
   12          2.196270000000        -0.062657668898
   13          1.304860000000        -0.062668024044
   14          0.779572000000        -0.037529766650
   15         59.090100000000        -0.000099120290
   16         20.919700000000         0.002918511072
   17         13.077700000000        -0.017589836630
   18          6.899100000000         0.051537566521
   19          2.196270000000        -0.060311511761
   20          1.304860000000        -0.060321479168
   21          0.779572000000        -0.036124500042
   22          9.137318313400        -0.000511410509
   23          3.957057424900         0.002521570446
   24          1.224663909800         0.006682135518
   25          9.137318313400         0.004067720549
   26          3.957057424900        -0.020056380802
   27          1.224663909800        -0.053149201022
   28          9.137318313400         0.003915408601
   29          3.957057424900        -0.019305388597
   30          1.224663909800        -0.051159079469
   31          0.426015642400        -0.037803251134
   32          0.426015642400         0.300684203201
 P 32
    1         59.090100000000         0.000043163285
    2         20.919700000000        -0.001270905532
    3         13.077700000000         0.007659734753
    4          6.899100000000        -0.022442737682
    5          2.196270000000         0.026263472046
    6          1.304860000000         0.026267812490
    7          0.779572000000         0.015730907240
    8         59.090100000000        -0.000343317506
    9         20.919700000000         0.010108686576
   10         13.077700000000        -0.060924951474
   11          6.899100000000         0.178507839801
   12          2.196270000000        -0.208897672250
   13          1.304860000000        -0.208932195811
   14          0.779572000000        -0.125122447598
   15         59.090100000000        -0.000330462307
   16         20.919700000000         0.009730176370
   17         13.077700000000        -0.058643674301
   18          6.899100000000         0.171823782610
   19          2.196270000000        -0.201075696532
   20          1.304860000000        -0.201108927391
   21          0.779572000000        -0.120437355915
   22          9.137318313400        -0.002094599444
   23          3.957057424900         0.010327672111
   24          1.224663909800         0.027368223936
   25          9.137318313400         0.016660285714
   26          3.957057424900        -0.082145523640
   27          1.224663909800        -0.217684785308
   28          9.137318313400         0.016036457076
   29          3.957057424900        -0.079069662218
   30          1.224663909800        -0.209533784455
   31          0.426015642400        -0.327953321444
   32          0.426015642400         2.608515939417
 P 32
    1         59.090100000000         0.000266475222
    2         20.919700000000        -0.007846132104
    3         13.077700000000         0.047288558619
    4          6.899100000000        -0.138553716370
    5          2.196270000000         0.162141611615
    6          1.304860000000         0.162168408016
    7          0.779572000000         0.097117191801
    8         59.090100000000        -0.002119523754
    9         20.919700000000         0.062407541014
   10         13.077700000000        -0.376129616764
   11          6.899100000000         1.102045775167
   12          2.196270000000        -1.289662108965
   13          1.304860000000        -1.289875245515
   14          0.779572000000        -0.772462794392
   15         59.090100000000        -0.002040160194
   16         20.919700000000         0.060070749723
   17         13.077700000000        -0.362045799350
   18          6.899100000000         1.060780714434
   19          2.196270000000        -1.241371932231
   20          1.304860000000        -1.241577088085
   21          0.779572000000        -0.743538656355
   22          9.137318313400         0.019542214598
   23          3.957057424900        -0.096355217360
   24          1.224663909800        -0.255340326227
   25          9.137318313400        -0.155437296084
   26          3.957057424900         0.766402107351
   27          1.224663909800         2.030957632325
   28          9.137318313400        -0.149617093687
   29          3.957057424900         0.737704906002
   30          1.224663909800         1.954910346511
   31          0.426015642400        -0.099101523656
   32          0.426015642400         0.788246019803
 end
  // -----------------------------------------------
  // The basis set
  // -----------------------------------------------
  BAS[ATNO] = new BFNGauss[NSH];
  // Basis function   1 L = s
  InitBFNGauss(BAS[ATNO][  0]);
  BAS[ATNO][  0].l  = 0;
  BAS[ATNO][  0].ng = 18;
  BAS[ATNO][  0].a[  0] =      9368.330000000000;     BAS[ATNO][  0].d[  0] =         0.000014980548;
  BAS[ATNO][  0].a[  1] =      1366.930000000000;     BAS[ATNO][  0].d[  1] =         0.000110213963;
  BAS[ATNO][  0].a[  2] =       299.682000000000;     BAS[ATNO][  0].d[  2] =         0.000405544543;
  BAS[ATNO][  0].a[  3] =        34.859700000000;     BAS[ATNO][  0].d[  3] =         0.024904072234;
  BAS[ATNO][  0].a[  4] =        21.788900000000;     BAS[ATNO][  0].d[  4] =        -0.217684318898;
  BAS[ATNO][  0].a[  5] =        13.620000000000;     BAS[ATNO][  0].d[  5] =         0.748185784986;
  BAS[ATNO][  0].a[  6] =         8.512950000000;     BAS[ATNO][  0].d[  6] =        -0.649343133788;
  BAS[ATNO][  0].a[  7] =         5.303320000000;     BAS[ATNO][  0].d[  7] =        -0.654212878255;
  BAS[ATNO][  0].a[  8] =         1.928160000000;     BAS[ATNO][  0].d[  8] =         0.818822225672;
  BAS[ATNO][  0].a[  9] =         1.037340031200;     BAS[ATNO][  0].d[  9] =         0.714110451377;
  BAS[ATNO][  0].a[ 10] =        13.559944213000;     BAS[ATNO][  0].d[ 10] =         0.024458682851;
  BAS[ATNO][  0].a[ 11] =        11.039620045000;     BAS[ATNO][  0].d[ 11] =        -0.041007715248;
  BAS[ATNO][  0].a[ 12] =         2.137172278800;     BAS[ATNO][  0].d[ 12] =         0.080481425336;
  BAS[ATNO][  0].a[ 13] =         0.511116856900;     BAS[ATNO][  0].d[ 13] =        -0.164945688313;
  BAS[ATNO][  0].a[ 14] =         0.246739875600;     BAS[ATNO][  0].d[ 14] =         0.119656744620;
  BAS[ATNO][  0].a[ 15] =         0.115779767400;     BAS[ATNO][  0].d[ 15] =        -0.065965474534;
  BAS[ATNO][  0].a[ 16] =         0.052874167800;     BAS[ATNO][  0].d[ 16] =         0.028729172971;
  BAS[ATNO][  0].a[ 17] =         0.023675714800;     BAS[ATNO][  0].d[ 17] =        -0.007472151699;

FINAL SINGLE POINT ENERGY      -174.447115427411

DIPOLE MOMENT
-------------
                                X             Y             Z
Electronic contribution:      0.00000      -0.00000       0.00000
Nuclear contribution   :      0.00000       0.00000       0.00000
                        -----------------------------------------
Total Dipole Moment    :      0.00000      -0.00000       0.00000
                        -----------------------------------------
Magnitude (a.u.)       :      0.00000
Magnitude (Debye)      :      0.00000

Rotational constants in cm-1:     0.000000     0.000000     0.000000
Rotational constants in MHz :     0.000000     0.000000     0.000000

                             ****ORCA TERMINATED NORMALLY****
TOTAL RUN TIME: 0 days 0 hours 0 minutes 1 seconds 123 msec
