                         Program Version 4.2.0 -  RELEASE  -
|  1> # input to generate an atomic fitting density for Bi
|  2> # this file is use internally by ORCA
|  3> #
|  4> # atomic ground state (S=4): 1s2 2s2 2p6 3s2 3p6 4s2 3d10 4p6 5s2 4d10 5p6 6s2 4f14 5d10 6p3
|  5> #
|  6> ! RHF AllowRHF def2-SVP def2/J  NoMulliken NoLoewdin NoMayer NoPrintMOs
|  7>
|  8> %output print[p_atomdensfit] 2 end
|  9>
| 10> %scf
| 11>   guess hcore
| 12>   maxiter 1000
| 13>   maxdisk 500000
| 14>   SCFMode Conventional
| 15>   lshift 1.000000
| 16>   hftyp rohf
| 17>   rohf_case sahf
| 18>   rohf_numop   2
| 19>   rohf_norb[1] 3
| 20>   rohf_nel[1]  3
| 21> end
| 22>
| 23> %basis
| 24>   NewECP 83
| 25>     N_core 60
| 26>     lmax f
| 27>     s 4
| 28>       1      13.0430900000    283.2642270000  2
| 29>       2       8.2216820000     62.4719590000  2
| 30>       3       4.2145460000    -13.7133830000  2
| 31>       4       4.1334000000    -18.1943080000  2
| 32>     p 6
| 33>       1      10.4677770000     72.0014990000  2
| 34>       2       9.1189010000    144.0022770000  2
| 35>       3       6.7547910000      5.0079450000  2
| 36>       4       6.2525920000      9.9915500000  2
| 37>       5       4.2145460000    -13.7133830000  2
| 38>       6       4.1334000000    -18.1943080000  2
| 39>     d 6
| 40>       1       8.0814740000     36.3962590000  2
| 41>       2       7.8905950000     54.5976640000  2
| 42>       3       4.9555560000      9.9842940000  2
| 43>       4       4.7045590000     14.9814850000  2
| 44>       5       4.2145460000    -13.7133830000  2
| 45>       6       4.1334000000    -18.1943080000  2
| 46>     f 2
| 47>       1       4.2145460000     13.7133830000  2
| 48>       2       4.1334000000     18.1943080000  2
| 49>   end
| 50>   NewGTO 83
| 51>     s 9
| 52>      1    8131.0900000000      0.0000712725
| 53>      2    1225.7700000000      0.0004915344
| 54>      3     274.6720000000      0.0016810477
| 55>      4      37.6164000000      0.0496892147
| 56>      5      23.4804000000     -0.3915710667
| 57>      6      14.1065000000      1.5034219296
| 58>      7       8.8130500000     -1.3385784881
| 59>      8       5.5077800000     -1.5652520445
| 60>      9       2.0397700000      1.8965806524
| 61>     s 1
| 62>      1       1.0975227257      1.0000000000
| 63>     s 3
| 64>      1      13.6142844740      0.3533708473
| 65>      2      11.0108817660     -0.6075206553
| 66>      3       2.2630089550      1.1734307253
| 67>     s 1
| 68>      1       0.5234444953      1.0000000000
| 69>     s 1
| 70>      1       0.2673440921      1.0000000000
| 71>     s 1
| 72>      1       0.1283660881      1.0000000000
| 73>     s 1
| 74>      1       0.0600977356      1.0000000000
| 75>     p 7
| 76>      1      99.5914000000      0.0003992118
| 77>      2      19.8964000000     -0.0230481361
| 78>      3      12.4376000000      0.2024280778
| 79>      4       7.7740000000     -0.4379284310
| 80>      5       4.8399500000     -0.0637608178
| 81>      6       2.2547800000      0.6102217862
| 82>      7       1.1804900000      0.6014991236
| 83>     p 3
| 84>      1       9.6213214965     -0.0586233007
| 85>      2       4.1321350830      0.2958305481
| 86>      3       1.2785827783      0.8067261440
| 87>     p 1
| 88>      1       0.5942359626      1.0000000000
| 89>     p 1
| 90>      1       0.2579416886      1.0000000000
| 91>     p 1
| 92>      1       0.1127359536      1.0000000000
| 93>     p 1
| 94>      1       0.0477919747      1.0000000000
| 95>     s 1
| 96>      1       0.0289376392      1.0000000000
| 97>   end
| 98>   NewAuxGTO 83
| 99>     S 1
|100>      1 1310.72 1.0
|101>     S 1
|102>      1  655.36 1.0
|103>     S 1
|104>      1  327.68 1.0
|105>     S 1
|106>      1  163.84 1.0
|107>     S 1
|108>      1   81.82 1.0
|109>     S 1
|110>      1   40.96 1.0
|111>     S 1
|112>      1   20.48 1.0
|113>     S 1
|114>      1   10.24 1.0
|115>     S 1
|116>      1    5.12 1.0
|117>     S 1
|118>      1    2.56 1.0
|119>     S 1
|120>      1    1.28 1.0
|121>     S 1
|122>      1    0.64 1.0
|123>     S 1
|124>      1    0.32 1.0
|125>     S 1
|126>      1    0.16 1.0
|127>     S 1
|128>      1    0.08 1.0
|129>     S 1
|130>      1    0.04 1.0
|131>     S 1
|132>      1    0.02 1.0
|133>     S 1
|134>      1    0.01 1.0
|135>   end
|136> end
|137>
|138> * xyz 0 4
|139> 83  0.0 0.0 0.0
|140> *
|141>
|142>
|143>                          ****END OF INPUT****

CARTESIAN COORDINATES (ANGSTROEM)
---------------------------------
  Bi     0.000000    0.000000    0.000000

 Total Charge           Charge          ....    0
 Multiplicity           Mult            ....    4
 Number of Electrons    NEL             ....   23
 Basis Dimension        Dim             ....   26

ORBITAL ENERGIES
----------------

  NO   OCC          E(Eh)            E(eV)
   0   2.0000     -10.010845      -272.4089
   1   2.0000      -7.271304      -197.8622
   2   2.0000      -7.271304      -197.8622
   3   2.0000      -7.263841      -197.6592
   4   2.0000      -2.611423       -71.0604
   5   2.0000      -1.694518       -46.1102
   6   2.0000      -1.694518       -46.1102
   7   2.0000      -1.682514       -45.7835
   8   2.0000      -0.523217       -14.2375
   9   2.0000      -0.273860        -7.4521
  10   1.0000      -0.320043        -8.7088
  11   1.0000      -0.320043        -8.7088
  12   1.0000      -0.080292        -2.1849
  13   0.0000       0.160640         4.3712
  14   0.0000       0.160640         4.3712
  15   0.0000       0.179951         4.8967
  16   0.0000       0.310746         8.4558
  17   0.0000       1.174814        31.9683

CleanUpVectors: The p-vectors have cracked symmetry
CleanUpVectors: The p-vectors have cracked symmetry
CleanUpVectors: The p-vectors have cracked symmetry
CleanUpVectors: The p-vectors have cracked symmetry
CleanUpVectors: The p-vectors have cracked symmetry
CleanUpVectors: The p-vectors have cracked symmetry
CleanUpVectors: The p-vectors have cracked symmetry
CleanUpVectors: The p-vectors have cracked symmetry
CleanUpVectors: The p-vectors have cracked symmetry
CleanUpVectors: The p-vectors have cracked symmetry
CleanUpVectors: The p-vectors have cracked symmetry
CleanUpVectors: The p-vectors have cracked symmetry
CleanUpVectors: The p-vectors have cracked symmetry
CleanUpVectors: The p-vectors have cracked symmetry
CleanUpVectors: The p-vectors have cracked symmetry
CleanUpVectors: The p-vectors have cracked symmetry
CleanUpVectors: The p-vectors have cracked symmetry
--------------------------
ATOM BASIS FOR ELEMENT Bi
--------------------------
 NewGTO Bi
 S 18
    1       8131.090000000000         0.000030946036
    2       1225.770000000000         0.000213420904
    3        274.672000000000         0.000729899516
    4         37.616400000000         0.021574720183
    5         23.480400000000        -0.170017502724
    6         14.106500000000         0.652775610226
    7          8.813050000000        -0.581201705390
    8          5.507780000000        -0.679621826972
    9          2.039770000000         0.823482462466
   10          1.097522725700         0.713597649741
   11         13.614284474000         0.026978003268
   12         11.010881766000        -0.046381002703
   13          2.263008955000         0.089585256349
   14          0.523444495300        -0.179525989671
   15          0.267344092100         0.142687192246
   16          0.128366088100        -0.078892973494
   17          0.060097735600         0.035256878747
   18          0.028937639200        -0.009543138243
 P 32
    1         99.591400000000         0.000091684489
    2         19.896400000000        -0.005293321918
    3         12.437600000000         0.046490396292
    4          7.774000000000        -0.100576296163
    5          4.839950000000        -0.014643550043
    6          2.254780000000         0.140145838337
    7          1.180490000000         0.138142558726
    8         99.591400000000        -0.000298289188
    9         19.896400000000         0.017221459399
   10         12.437600000000        -0.151253312110
   11          7.774000000000         0.327218073579
   12          4.839950000000         0.047641784578
   13          2.254780000000        -0.455954862032
   14          1.180490000000        -0.449437329370
   15         99.591400000000         0.000230223863
   16         19.896400000000        -0.013291768754
   17         12.437600000000         0.116739470291
   18          7.774000000000        -0.252551590747
   19          4.839950000000        -0.036770610956
   20          2.254780000000         0.351912485931
   21          1.180490000000         0.346882160976
   22          9.621321496500        -0.000949553141
   23          4.132135083000         0.004791726546
   24          1.278582778300         0.013066977376
   25          9.621321496500         0.003089305944
   26          4.132135083000        -0.015589553296
   27          1.278582778300        -0.042512513660
   28          9.621321496500        -0.002384370527
   29          4.132135083000         0.012032240276
   30          1.278582778300         0.032811766276
   31          0.594235962600        -0.018970859192
   32          0.594235962600         0.061720387761
 S 18
    1       8131.090000000000         0.000020154350
    2       1225.770000000000         0.000138995492
    3        274.672000000000         0.000475364597
    4         37.616400000000         0.014051054901
    5         23.480400000000        -0.110727983708
    6         14.106500000000         0.425135800582
    7          8.813050000000        -0.378521575332
    8          5.507780000000        -0.442620044280
    9          2.039770000000         0.536312739725
   10          1.097522725700         1.285007791296
   11         13.614284474000         0.107428348406
   12         11.010881766000        -0.184692487002
   13          2.263008955000         0.356734930885
   14          0.523444495300        -1.816669680101
   15          0.267344092100        -0.074519691289
   16          0.128366088100        -0.228615383408
   17          0.060097735600         0.102354741688
   18          0.028937639200        -0.027684261758
 P 32
    1         99.591400000000        -0.000127428218
    2         19.896400000000         0.007356954159
    3         12.437600000000        -0.064614946838
    4          7.774000000000         0.139786548366
    5          4.839950000000         0.020352422931
    6          2.254780000000        -0.194782505981
    7          1.180490000000        -0.191998236198
    8         99.591400000000        -0.000019326749
    9         19.896400000000         0.001115812534
   10         12.437600000000        -0.009800002282
   11          7.774000000000         0.021201108412
   12          4.839950000000         0.003086805777
   13          2.254780000000        -0.029542220438
   14          1.180490000000        -0.029119936562
   15         99.591400000000        -0.000241863738
   16         19.896400000000         0.013963786509
   17         12.437600000000        -0.122641694299
   18          7.774000000000         0.265320331761
   19          4.839950000000         0.038629694111
   20          2.254780000000        -0.369704808597
   21          1.180490000000        -0.364420155739
   22          9.621321496500         0.009520111096
   23          4.132135083000        -0.048041301834
   24          1.278582778300        -0.131008019388
   25          9.621321496500         0.001443893635
   26          4.132135083000        -0.007286315174
   27          1.278582778300        -0.019869688853
   28          9.621321496500         0.018069542913
   29          4.132135083000        -0.091184268370
   30          1.278582778300        -0.248658340689
   31          0.594235962600         0.472017739885
   32          0.594235962600         0.071589858915
 S 18
    1       8131.090000000000        -0.000004500700
    2       1225.770000000000        -0.000031039306
    3        274.672000000000        -0.000106154429
    4         37.616400000000        -0.003137763553
    5         23.480400000000         0.024726843218
    6         14.106500000000        -0.094937755891
    7          8.813050000000         0.084528258662
    8          5.507780000000         0.098842190328
    9          2.039770000000        -0.119764856066
   10          1.097522725700        -0.487482856618
   11         13.614284474000        -0.028060340936
   12         11.010881766000         0.048241774452
   13          2.263008955000        -0.093179351009
   14          0.523444495300         1.141454811873
   15          0.267344092100        -0.456189051730
   16          0.128366088100         0.562167646970
   17          0.060097735600        -2.937292205875
   18          0.028937639200         2.746089456386
 S 18
    1       8131.090000000000         0.000006221873
    2       1225.770000000000         0.000042909462
    3        274.672000000000         0.000146750363
    4         37.616400000000         0.004337717665
    5         23.480400000000        -0.034182965928
    6         14.106500000000         0.131244172427
    7          8.813050000000        -0.116853840190
    8          5.507780000000        -0.136641753839
    9          2.039770000000         0.165565735916
   10          1.097522725700         0.347300987652
   11         13.614284474000         0.072750882775
   12         11.010881766000        -0.125074448882
   13          2.263008955000         0.241582240847
   14          0.523444495300         0.061529275391
   15          0.267344092100        -4.572664518842
   16          0.128366088100         9.628857397841
   17          0.060097735600        -8.886792346189
   18          0.028937639200         3.363769907472
 S 18
    1       8131.090000000000        -0.000020639533
    2       1225.770000000000        -0.000142341583
    3        274.672000000000        -0.000486808231
    4         37.616400000000        -0.014389311312
    5         23.480400000000         0.113393580749
    6         14.106500000000        -0.435370257078
    7          8.813050000000         0.387633869780
    8          5.507780000000         0.453275405652
    9          2.039770000000        -0.549223601138
   10          1.097522725700        -3.734931433874
   11         13.614284474000        -0.065267088867
   12         11.010881766000         0.112208194029
   13          2.263008955000        -0.216730972610
   14          0.523444495300        12.948185603329
   15          0.267344092100       -17.534934587820
   16          0.128366088100        13.347157388612
   17          0.060097735600        -6.623665009150
   18          0.028937639200         1.789076228141
 S 18
    1       8131.090000000000         0.000033169618
    2       1225.770000000000         0.000228755947
    3        274.672000000000         0.000782345364
    4         37.616400000000         0.023124939734
    5         23.480400000000        -0.182233858470
    6         14.106500000000         0.699679834489
    7          8.813050000000        -0.622963092771
    8          5.507780000000        -0.728455046362
    9          2.039770000000         0.882652574663
   10          1.097522725700        12.585078455306
   11         13.614284474000        -2.088772700929
   12         11.010881766000         3.591050506109
   13          2.263008955000        -6.936141122464
   14          0.523444495300       -14.845717361187
   15          0.267344092100        11.929431886316
   16          0.128366088100        -6.699016090418
   17          0.060097735600         2.963952623199
   18          0.028937639200        -0.792871517328
 S 18
    1       8131.090000000000         0.000074852382
    2       1225.770000000000         0.000516223236
    3        274.672000000000         0.001765483522
    4         37.616400000000         0.052185009246
    5         23.480400000000        -0.411238935043
    6         14.106500000000         1.578935947590
    7          8.813050000000        -1.405812734217
    8          5.507780000000        -1.643871671313
    9          2.039770000000         1.991842283673
   10          1.097522725700        -7.552887888430
   11         13.614284474000         1.104321177699
   12         11.010881766000        -1.898566139973
   13          2.263008955000         3.667094811053
   14          0.523444495300         7.044554686276
   15          0.267344092100        -5.229458523278
   16          0.128366088100         2.864421935698
   17          0.060097735600        -1.266416538013
   18          0.028937639200         0.340443581818
 P 32
    1         99.591400000000        -0.000244113203
    2         19.896400000000         0.014093657359
    3         12.437600000000        -0.123782329117
    4          7.774000000000         0.267787955925
    5          4.839950000000         0.038988971389
    6          2.254780000000        -0.373143265474
    7          1.180490000000        -0.367809462454
    8         99.591400000000         0.000022825375
    9         19.896400000000        -0.001317802624
   10         12.437600000000         0.011574048804
   11          7.774000000000        -0.025039041461
   12          4.839950000000        -0.003645595142
   13          2.254780000000         0.034890104235
   14          1.180490000000         0.034391376372
   15         99.591400000000         0.000126789449
   16         19.896400000000        -0.007320075423
   17         12.437600000000         0.064291046824
   18          7.774000000000        -0.139085830231
   19          4.839950000000        -0.020250400870
   20          2.254780000000         0.193806105634
   21          1.180490000000         0.191035792762
   22          9.621321496500         0.018333774198
   23          4.132135083000        -0.092517657742
   24          1.278582778300        -0.252294476556
   25          9.621321496500        -0.001714267285
   26          4.132135083000         0.008650700738
   27          1.278582778300         0.023590350944
   28          9.621321496500        -0.009522340902
   29          4.132135083000         0.048052554095
   30          1.278582778300         0.131038704161
   31          0.594235962600         0.915039634885
   32          0.594235962600        -0.085559170415
 P 32
    1         99.591400000000        -0.000049088588
    2         19.896400000000         0.002834085735
    3         12.437600000000        -0.024891319850
    4          7.774000000000         0.053849331406
    5          4.839950000000         0.007840270614
    6          2.254780000000        -0.075035172120
    7          1.180490000000        -0.073962600631
    8         99.591400000000         0.000050173491
    9         19.896400000000        -0.002896721625
   10         12.437600000000         0.025441440818
   11          7.774000000000        -0.055039450954
   12          4.839950000000        -0.008013547776
   13          2.254780000000         0.076693518153
   14          1.180490000000         0.075597241852
   15         99.591400000000        -0.000103544904
   16         19.896400000000         0.005978072370
   17         12.437600000000        -0.052504449534
   18          7.774000000000         0.113586966072
   19          4.839950000000         0.016537857183
   20          2.254780000000        -0.158275271526
   21          1.180490000000        -0.156012845269
   22          9.621321496500         0.004563463476
   23          4.132135083000        -0.023028589064
   24          1.278582778300        -0.062798669633
   25          9.621321496500        -0.004664320199
   26          4.132135083000         0.023537541976
   27          1.278582778300         0.064186577754
   28          9.621321496500         0.009625931419
   29          4.132135083000        -0.048575302542
   30          1.278582778300        -0.132464232531
   31          0.594235962600         0.270077369019
   32          0.594235962600        -0.276046326256
 P 32
    1         99.591400000000        -0.000081512797
    2         19.896400000000         0.004706068405
    3         12.437600000000        -0.041332642999
    4          7.774000000000         0.089418126647
    5          4.839950000000         0.013018960354
    6          2.254780000000        -0.124597731270
    7          1.180490000000        -0.122816700184
    8         99.591400000000         0.000007621711
    9         19.896400000000        -0.000440032643
   10         12.437600000000         0.003864736030
   11          7.774000000000        -0.008360884539
   12          4.839950000000        -0.001217314972
   13          2.254780000000         0.011650291547
   14          1.180490000000         0.011483759370
   15         99.591400000000         0.000042336762
   16         19.896400000000        -0.002444275094
   17         12.437600000000         0.021467675599
   18          7.774000000000        -0.046442695077
   19          4.839950000000        -0.006761890778
   20          2.254780000000         0.064714556854
   21          1.180490000000         0.063789510818
   22          9.621321496500         0.007466985390
   23          4.132135083000        -0.037680621088
   24          1.278582778300        -0.102754574703
   25          9.621321496500        -0.000698187326
   26          4.132135083000         0.003523260150
   27          1.278582778300         0.009607885640
   28          9.621321496500        -0.003878262033
   29          4.132135083000         0.019570859524
   30          1.278582778300         0.053369485133
   31          0.594235962600         0.336218586210
   32          0.594235962600        -0.031437527095
 P 32
    1         99.591400000000        -0.000300730604
    2         19.896400000000         0.017362412372
    3         12.437600000000        -0.152491279429
    4          7.774000000000         0.329896264725
    5          4.839950000000         0.048031719658
    6          2.254780000000        -0.459686728860
    7          1.180490000000        -0.453115851963
    8         99.591400000000         0.000028119286
    9         19.896400000000        -0.001623441808
   10         12.437600000000         0.014258428670
   11          7.774000000000        -0.030846369553
   12          4.839950000000        -0.004491121402
   13          2.254780000000         0.042982198447
   14          1.180490000000         0.042367800168
   15         99.591400000000         0.000156195844
   16         19.896400000000        -0.009017827300
   17         12.437600000000         0.079202128900
   18          7.774000000000        -0.171344135744
   19          4.839950000000        -0.024947095112
   20          2.254780000000         0.238755735338
   21          1.180490000000         0.235342901233
   22          9.621321496500         0.036429655842
   23          4.132135083000        -0.183834839154
   24          1.278582778300        -0.501315269421
   25          9.621321496500        -0.003406290846
   26          4.132135083000         0.017189153051
   27          1.278582778300         0.046874601858
   28          9.621321496500        -0.018921123284
   29          4.132135083000         0.095481595285
   30          1.278582778300         0.260377096557
   31          0.594235962600         3.456550060922
   32          0.594235962600        -0.323198629266
 P 32
    1         99.591400000000        -0.001349629629
    2         19.896400000000         0.077919659101
    3         12.437600000000        -0.684355851863
    4          7.774000000000         1.480520329538
    5          4.839950000000         0.215558480104
    6          2.254780000000        -2.062998645539
    7          1.180490000000        -2.033509627716
    8         99.591400000000         0.000126194743
    9         19.896400000000        -0.007285740592
   10         12.437600000000         0.063989489521
   11          7.774000000000        -0.138433447825
   12          4.839950000000        -0.020155416318
   13          2.254780000000         0.192897057651
   14          1.180490000000         0.190139738937
   15         99.591400000000         0.000700981330
   16         19.896400000000        -0.040470529913
   17         12.437600000000         0.355446164596
   18          7.774000000000        -0.768964379143
   19          4.839950000000        -0.111958471299
   20          2.254780000000         1.071496581972
   21          1.180490000000         1.056180342249
   22          9.621321496500        -0.184472694456
   23          4.132135083000         0.930903883927
   24          1.278582778300         2.538563057596
   25          9.621321496500         0.017248794639
   26          4.132135083000        -0.087042529356
   27          1.278582778300        -0.237363871047
   28          9.621321496500         0.095812889651
   29          4.132135083000        -0.483500234927
   30          1.278582778300        -1.318498994275
   31          0.594235962600         0.664660312143
   32          0.594235962600        -0.062147892742
 end
  // -----------------------------------------------
  // The basis set
  // -----------------------------------------------
  BAS[ATNO] = new BFNGauss[NSH];
  // Basis function   1 L = s
  InitBFNGauss(BAS[ATNO][  0]);
  BAS[ATNO][  0].l  = 0;
  BAS[ATNO][  0].ng = 18;
  BAS[ATNO][  0].a[  0] =      8131.090000000000;     BAS[ATNO][  0].d[  0] =         0.000030946036;
  BAS[ATNO][  0].a[  1] =      1225.770000000000;     BAS[ATNO][  0].d[  1] =         0.000213420904;
  BAS[ATNO][  0].a[  2] =       274.672000000000;     BAS[ATNO][  0].d[  2] =         0.000729899516;
  BAS[ATNO][  0].a[  3] =        37.616400000000;     BAS[ATNO][  0].d[  3] =         0.021574720183;
  BAS[ATNO][  0].a[  4] =        23.480400000000;     BAS[ATNO][  0].d[  4] =        -0.170017502724;
  BAS[ATNO][  0].a[  5] =        14.106500000000;     BAS[ATNO][  0].d[  5] =         0.652775610226;
  BAS[ATNO][  0].a[  6] =         8.813050000000;     BAS[ATNO][  0].d[  6] =        -0.581201705390;
  BAS[ATNO][  0].a[  7] =         5.507780000000;     BAS[ATNO][  0].d[  7] =        -0.679621826972;
  BAS[ATNO][  0].a[  8] =         2.039770000000;     BAS[ATNO][  0].d[  8] =         0.823482462466;
  BAS[ATNO][  0].a[  9] =         1.097522725700;     BAS[ATNO][  0].d[  9] =         0.713597649741;
  BAS[ATNO][  0].a[ 10] =        13.614284474000;     BAS[ATNO][  0].d[ 10] =         0.026978003268;
  BAS[ATNO][  0].a[ 11] =        11.010881766000;     BAS[ATNO][  0].d[ 11] =        -0.046381002703;
  BAS[ATNO][  0].a[ 12] =         2.263008955000;     BAS[ATNO][  0].d[ 12] =         0.089585256349;
  BAS[ATNO][  0].a[ 13] =         0.523444495300;     BAS[ATNO][  0].d[ 13] =        -0.179525989671;
  BAS[ATNO][  0].a[ 14] =         0.267344092100;     BAS[ATNO][  0].d[ 14] =         0.142687192246;
  BAS[ATNO][  0].a[ 15] =         0.128366088100;     BAS[ATNO][  0].d[ 15] =        -0.078892973494;
  BAS[ATNO][  0].a[ 16] =         0.060097735600;     BAS[ATNO][  0].d[ 16] =         0.035256878747;
  BAS[ATNO][  0].a[ 17] =         0.028937639200;     BAS[ATNO][  0].d[ 17] =        -0.009543138243;

FINAL SINGLE POINT ENERGY      -192.642335382465

DIPOLE MOMENT
-------------
                                X             Y             Z
Electronic contribution:     -0.00000       0.00000       0.00000
Nuclear contribution   :      0.00000       0.00000       0.00000
                        -----------------------------------------
Total Dipole Moment    :     -0.00000       0.00000       0.00000
                        -----------------------------------------
Magnitude (a.u.)       :      0.00000
Magnitude (Debye)      :      0.00000

Rotational constants in cm-1:     0.000000     0.000000     0.000000
Rotational constants in MHz :     0.000000     0.000000     0.000000

                             ****ORCA TERMINATED NORMALLY****
TOTAL RUN TIME: 0 days 0 hours 0 minutes 1 seconds 115 msec
