                         Program Version 4.2.0 -  RELEASE  -
|  1> #
|  2> # 84_Po CCSD(T)/Def2-QZVPPD
|  3> #
|  4> ! CCSD(T) Def2-QZVPPD tightscf slowconv
|  5>
|  6> *xyz 0 3
|  7>  Po 0.0 0.0 0.0
|  8> *
|  9>
| 10> %maxcore 5000
| 11>
| 12> %pal
| 13> nprocs 24
| 14> end
| 15>
| 16>
| 17>                          ****END OF INPUT****

CARTESIAN COORDINATES (ANGSTROEM)
---------------------------------
  Po     0.000000    0.000000    0.000000

 Total Charge           Charge          ....    0
 Multiplicity           Mult            ....    3
 Number of Electrons    NEL             ....   24
 Basis Dimension        Dim             ....   91

ORBITAL ENERGIES
----------------
                 SPIN UP ORBITALS
  NO   OCC          E(Eh)            E(eV)
   0   1.0000      -7.246036      -197.1747
   1   1.0000      -4.687523      -127.5540
   2   1.0000      -4.687523      -127.5540
   3   1.0000      -4.669613      -127.0666
   4   1.0000      -1.580700       -43.0130
   5   1.0000      -1.580700       -43.0130
   6   1.0000      -1.564031       -42.5594
   7   1.0000      -1.564031       -42.5594
   8   1.0000      -1.558825       -42.4178
   9   1.0000      -0.882698       -24.0194
  10   1.0000      -0.376837       -10.2543
  11   1.0000      -0.376837       -10.2543
  12   1.0000      -0.326467        -8.8836
  13   0.0000       0.040134         1.0921
  14   0.0000       0.040134         1.0921
  15   0.0000       0.041892         1.1399
  16   0.0000       0.043874         1.1939
  17   0.0000       0.111959         3.0466

                 SPIN DOWN ORBITALS
  NO   OCC          E(Eh)            E(eV)
   0   1.0000      -7.234838      -196.8700
   1   1.0000      -4.674228      -127.1922
   2   1.0000      -4.674228      -127.1922
   3   1.0000      -4.670185      -127.0822
   4   1.0000      -1.563631       -42.5486
   5   1.0000      -1.563631       -42.5486
   6   1.0000      -1.555329       -42.3227
   7   1.0000      -1.555329       -42.3227
   8   1.0000      -1.552916       -42.2570
   9   1.0000      -0.733254       -19.9529
  10   1.0000      -0.292800        -7.9675
  11   0.0000      -0.010177        -0.2769
  12   0.0000      -0.010177        -0.2769
  13   0.0000       0.044425         1.2089
  14   0.0000       0.048223         1.3122
  15   0.0000       0.049411         1.3446

E(0)                                       ...   -236.726911061
E(0)                                       ...   -236.726911061
E(CORR)                                    ...     -0.480573197
E(TOT)                                     ...   -237.207484258
E(CCSD(T))                                 ...   -237.218161367

MULLIKEN ATOMIC CHARGES AND SPIN DENSITIES
------------------------------------------
   0 Po:   -0.000000    2.000000
Sum of atomic charges       :   -0.0000000

LOEWDIN ATOMIC CHARGES AND SPIN DENSITIES
-----------------------------------------
   0 Po:   -0.000000    2.000000

FINAL SINGLE POINT ENERGY      -237.218161366584

DIPOLE MOMENT
-------------
                                X             Y             Z
Electronic contribution:     -0.00000       0.00000       0.00000
Nuclear contribution   :      0.00000       0.00000       0.00000
                        -----------------------------------------
Total Dipole Moment    :     -0.00000       0.00000       0.00000
                        -----------------------------------------
Magnitude (a.u.)       :      0.00000
Magnitude (Debye)      :      0.00000

Rotational constants in cm-1:     0.000000     0.000000     0.000000
Rotational constants in MHz :     0.000000     0.000000     0.000000

                             ****ORCA TERMINATED NORMALLY****
TOTAL RUN TIME: 0 days 0 hours 0 minutes 40 seconds 259 msec
