                         Program Version 4.2.0 -  RELEASE  -
|  1> # input to generate an atomic fitting density for Po
|  2> # this file is use internally by ORCA
|  3> #
|  4> # atomic ground state (S=3): 1s2 2s2 2p6 3s2 3p6 4s2 3d10 4p6 5s2 4d10 5p6 6s2 4f14 5d10 6p4
|  5> #
|  6> ! RHF AllowRHF def2-SVP def2/J  NoMulliken NoLoewdin NoMayer NoPrintMOs
|  7>
|  8> %output print[p_atomdensfit] 2 end
|  9>
| 10> %scf
| 11>   guess hcore
| 12>   maxiter 1000
| 13>   maxdisk 500000
| 14>   SCFMode Conventional
| 15>   lshift 1.000000
| 16>   hftyp rohf
| 17>   rohf_case sahf
| 18>   rohf_numop   2
| 19>   rohf_norb[1] 3
| 20>   rohf_nel[1]  4
| 21> end
| 22>
| 23> %basis
| 24>   NewECP 84
| 25>     N_core 60
| 26>     lmax f
| 27>     s 6
| 28>       1      13.2772270000    283.2447060000  2
| 29>       2       8.3995180000     62.3964610000  2
| 30>       3       5.0132700000    -17.4282950000  2
| 31>       4       4.9846400000    -23.3803530000  2
| 32>       5       1.3267600000     -0.1633920000  2
| 33>       6       1.5287580000     -0.3245660000  2
| 34>     p 8
| 35>       1      10.6656820000     71.9917160000  2
| 36>       2       9.2837530000    143.9718710000  2
| 37>       3       6.8727490000      4.9496150000  2
| 38>       4       6.3261500000      9.7404990000  2
| 39>       5       5.0132700000    -17.4282950000  2
| 40>       6       4.9846400000    -23.3803530000  2
| 41>       7       1.3267600000     -0.1633920000  2
| 42>       8       1.5287580000     -0.3245660000  2
| 43>     d 8
| 44>       1       8.2148660000     36.3783830000  2
| 45>       2       8.0086960000     54.5627150000  2
| 46>       3       5.0552270000      9.8894990000  2
| 47>       4       4.7825530000     14.6938770000  2
| 48>       5       5.0132700000    -17.4282950000  2
| 49>       6       4.9846400000    -23.3803530000  2
| 50>       7       1.3267600000     -0.1633920000  2
| 51>       8       1.5287580000     -0.3245660000  2
| 52>     f 4
| 53>       1       5.0132700000     17.4282950000  2
| 54>       2       4.9846400000     23.3803530000  2
| 55>       3       1.3267600000      0.1633920000  2
| 56>       4       1.5287580000      0.3245660000  2
| 57>   end
| 58>   NewGTO 84
| 59>     s 9
| 60>      1    8913.2900000000      0.0001167204
| 61>      2    1338.9800000000      0.0008220098
| 62>      3     299.5380000000      0.0028832430
| 63>      4      51.1489000000      0.0196164827
| 64>      5      23.0156000000     -0.3708903452
| 65>      6      14.3765000000      1.5850187531
| 66>      7       8.9827900000     -1.5324722084
| 67>      8       5.6129200000     -1.5029543564
| 68>      9       2.1648400000      1.9273423937
| 69>     s 1
| 70>      1       1.1753800000      1.0000000000
| 71>     s 3
| 72>      1      14.7877669070      0.3570618912
| 73>      2      11.9587812040     -0.6121790190
| 74>      3       2.4798455066      1.1751187195
| 75>     s 1
| 76>      1       0.5548147779      1.0000000000
| 77>     s 1
| 78>      1       0.2858173520      1.0000000000
| 79>     s 1
| 80>      1       0.1384943947      1.0000000000
| 81>     s 1
| 82>      1       0.0649545238      1.0000000000
| 83>     p 7
| 84>      1     113.5570000000      0.0004320813
| 85>      2      20.3639000000     -0.0203815095
| 86>      3      12.7274000000      0.1951355081
| 87>      4       7.9498400000     -0.4451475745
| 88>      5       4.9647700000     -0.0355177529
| 89>      6       2.3013000000      0.6319853351
| 90>      7       1.1954500000      0.5696573282
| 91>     p 3
| 92>      1       8.4681300000     -0.4997453257
| 93>      2       7.7962017000      0.5987433400
| 94>      3       0.6687175800      0.9647786408
| 95>     p 1
| 96>      1       0.5915242393      1.0000000000
| 97>     p 1
| 98>      1       0.2444484380      1.0000000000
| 99>     p 1
|100>      1       0.1101892246      1.0000000000
|101>     p 1
|102>      1       0.0481497760      1.0000000000
|103>     s 1
|104>      1       0.0290313047      1.0000000000
|105>     p 1
|106>      1       0.0166309678      1.0000000000
|107>   end
|108>   NewAuxGTO 84
|109>     S 1
|110>      1 1310.72 1.0
|111>     S 1
|112>      1  655.36 1.0
|113>     S 1
|114>      1  327.68 1.0
|115>     S 1
|116>      1  163.84 1.0
|117>     S 1
|118>      1   81.82 1.0
|119>     S 1
|120>      1   40.96 1.0
|121>     S 1
|122>      1   20.48 1.0
|123>     S 1
|124>      1   10.24 1.0
|125>     S 1
|126>      1    5.12 1.0
|127>     S 1
|128>      1    2.56 1.0
|129>     S 1
|130>      1    1.28 1.0
|131>     S 1
|132>      1    0.64 1.0
|133>     S 1
|134>      1    0.32 1.0
|135>     S 1
|136>      1    0.16 1.0
|137>     S 1
|138>      1    0.08 1.0
|139>     S 1
|140>      1    0.04 1.0
|141>     S 1
|142>      1    0.02 1.0
|143>     S 1
|144>      1    0.01 1.0
|145>   end
|146> end
|147>
|148> * xyz 0 3
|149> 84  0.0 0.0 0.0
|150> *
|151>
|152>
|153>                          ****END OF INPUT****

CARTESIAN COORDINATES (ANGSTROEM)
---------------------------------
  Po     0.000000    0.000000    0.000000

 Total Charge           Charge          ....    0
 Multiplicity           Mult            ....    3
 Number of Electrons    NEL             ....   24
 Basis Dimension        Dim             ....   29

ORBITAL ENERGIES
----------------

  NO   OCC          E(Eh)            E(eV)
   0   2.0000     -10.881666      -296.1052
   1   2.0000      -7.980011      -217.1471
   2   2.0000      -7.980011      -217.1471
   3   2.0000      -7.974357      -216.9933
   4   2.0000      -2.939017       -79.9747
   5   2.0000      -1.936236       -52.6877
   6   2.0000      -1.936236       -52.6877
   7   2.0000      -1.926998       -52.4363
   8   2.0000      -0.624095       -16.9825
   9   2.0000      -0.334706        -9.1078
  10   1.3333      -0.351468        -9.5639
  11   1.3333      -0.351468        -9.5639
  12   1.3333      -0.091479        -2.4893
  13   0.0000       0.003862         0.1051
  14   0.0000       0.003862         0.1051
  15   0.0000       0.007850         0.2136
  16   0.0000       0.182537         4.9671
  17   0.0000       0.182537         4.9671

CleanUpVectors: The p-vectors have cracked symmetry
CleanUpVectors: The p-vectors have cracked symmetry
CleanUpVectors: The p-vectors have cracked symmetry
CleanUpVectors: The p-vectors have cracked symmetry
CleanUpVectors: The p-vectors have cracked symmetry
CleanUpVectors: The p-vectors have cracked symmetry
CleanUpVectors: The p-vectors have cracked symmetry
CleanUpVectors: The p-vectors have cracked symmetry
CleanUpVectors: The p-vectors have cracked symmetry
CleanUpVectors: The p-vectors have cracked symmetry
CleanUpVectors: The p-vectors have cracked symmetry
CleanUpVectors: The p-vectors have cracked symmetry
CleanUpVectors: The p-vectors have cracked symmetry
CleanUpVectors: The p-vectors have cracked symmetry
CleanUpVectors: The p-vectors have cracked symmetry
CleanUpVectors: The p-vectors have cracked symmetry
CleanUpVectors: The p-vectors have cracked symmetry
CleanUpVectors: The p-vectors have cracked symmetry
CleanUpVectors: The p-vectors have cracked symmetry
CleanUpVectors: The p-vectors have cracked symmetry
--------------------------
ATOM BASIS FOR ELEMENT Po
--------------------------
 NewGTO Po
 S 18
    1       8913.290000000001         0.000050320398
    2       1338.980000000000         0.000354384157
    3        299.538000000000         0.001243021239
    4         51.148900000000         0.008457041128
    5         23.015600000000        -0.159897926208
    6         14.376500000000         0.683331919801
    7          8.982790000000        -0.660678098704
    8          5.612920000000        -0.647952387771
    9          2.164840000000         0.830914192924
   10          1.175380000000         0.726642691877
   11         14.787766907000         0.027656208289
   12         11.958781204000        -0.047416290780
   13          2.479845506600         0.091018752972
   14          0.554814777900        -0.183629347075
   15          0.285817352000         0.147371448396
   16          0.138494394700        -0.080060160763
   17          0.064954523800         0.033434191797
   18          0.029031304700        -0.008169749993
 P 33
    1        113.557000000000        -0.000019340778
    2         20.363900000000         0.000912315003
    3         12.727400000000        -0.008734635266
    4          7.949840000000         0.019925649313
    5          4.964770000000         0.001589841952
    6          2.301300000000        -0.028288861671
    7          1.195450000000        -0.025498941925
    8        113.557000000000        -0.000377011485
    9         20.363900000000         0.017783836452
   10         12.727400000000        -0.170265012123
   11          7.949840000000         0.388412431477
   12          4.964770000000         0.030990928750
   13          2.301300000000        -0.551437264237
   14          1.195450000000        -0.497053113686
   15        113.557000000000         0.000235229962
   16         20.363900000000        -0.011095925038
   17         12.727400000000         0.106233984784
   18          7.949840000000        -0.242343390584
   19          4.964770000000        -0.019336267694
   20          2.301300000000         0.344059987476
   21          1.195450000000         0.310127913292
   22          8.468130000000         0.003772588201
   23          7.796201700000        -0.004519926338
   24          0.668717580000        -0.007283134689
   25          8.468130000000         0.073539393031
   26          7.796201700000        -0.088107320951
   27          0.668717580000        -0.141970783928
   28          8.468130000000        -0.045883664899
   29          7.796201700000         0.054973078007
   30          0.668717580000         0.088580277954
   31          0.591524239300         0.011781573999
   32          0.591524239300         0.229659256364
   33          0.591524239300        -0.143292022489
 S 18
    1       8913.290000000001         0.000034190989
    2       1338.980000000000         0.000240791913
    3        299.538000000000         0.000844590414
    4         51.148900000000         0.005746270174
    5         23.015600000000        -0.108645171556
    6         14.376500000000         0.464300666164
    7          8.982790000000        -0.448908169601
    8          5.612920000000        -0.440261484305
    9          2.164840000000         0.564577772705
   10          1.175380000000         1.332235674026
   11         14.787766907000         0.111936770952
   12         11.958781204000        -0.191914467268
   13          2.479845506600         0.368392702183
   14          0.554814777900        -1.954012617089
   15          0.285817352000         0.043673201977
   16          0.138494394700        -0.252864318177
   17          0.064954523800         0.106614650320
   18          0.029031304700        -0.026118867552
 P 33
    1        113.557000000000         0.000064941854
    2         20.363900000000        -0.003063342511
    3         12.727400000000         0.029328882503
    4          7.949840000000        -0.066905716116
    5          4.964770000000        -0.005338321107
    6          2.301300000000         0.094987446505
    7          1.195450000000         0.085619542074
    8        113.557000000000        -0.000010327428
    9         20.363900000000         0.000487150368
   10         12.727400000000        -0.004664047798
   11          7.949840000000         0.010639732280
   12          4.964770000000         0.000848930565
   13          2.301300000000        -0.015105450766
   14          1.195450000000        -0.013615712655
   15        113.557000000000         0.000385658582
   16         20.363900000000        -0.018191724671
   17         12.727400000000         0.174170192689
   18          7.949840000000        -0.397321018509
   19          4.964770000000        -0.031701733460
   20          2.301300000000         0.564084971836
   21          1.195450000000         0.508453472078
   22          8.468130000000        -0.081081195892
   23          7.796201700000         0.097143131798
   24          0.668717580000         0.156530540546
   25          8.468130000000         0.012893998709
   26          7.796201700000        -0.015448260256
   27          0.668717580000        -0.024892388002
   28          8.468130000000        -0.481502406731
   29          7.796201700000         0.576886554807
   30          0.668717580000         0.929559945072
   31          0.591524239300        -0.353452833119
   32          0.591524239300         0.056208105022
   33          0.591524239300        -2.098987168848
 S 18
    1       8913.290000000001        -0.000007863118
    2       1338.980000000000        -0.000055376440
    3        299.538000000000        -0.000194235803
    4         51.148900000000        -0.001321506116
    5         23.015600000000         0.024985817652
    6         14.376500000000        -0.106778162474
    7          8.982790000000         0.103238252630
    8          5.612920000000         0.101249719692
    9          2.164840000000        -0.129839523258
   10          1.175380000000        -0.514130497283
   11         14.787766907000        -0.031875771979
   12         11.958781204000         0.054650690260
   13          2.479845506600        -0.104905668383
   14          0.554814777900         1.252918378820
   15          0.285817352000        -0.467212262370
   16          0.138494394700         0.215317042078
   17          0.064954523800        -2.246820718253
   18          0.029031304700         2.347073947765
 S 18
    1       8913.290000000001         0.000010386589
    2       1338.980000000000         0.000073148120
    3        299.538000000000         0.000256570912
    4         51.148900000000         0.001745610360
    5         23.015600000000        -0.033004389155
    6         14.376500000000         0.141045935603
    7          8.982790000000        -0.136369980479
    8          5.612920000000        -0.133743277770
    9          2.164840000000         0.171508261725
   10          1.175380000000         0.390693158102
   11         14.787766907000         0.071320864210
   12         11.958781204000        -0.122278903916
   13          2.479845506600         0.234722564040
   14          0.554814777900        -0.175538846980
   15          0.285817352000        -4.097128826354
   16          0.138494394700         9.064394351141
   17          0.064954523800        -8.201435240734
   18          0.029031304700         2.974683038519
 S 18
    1       8913.290000000001        -0.000033045843
    2       1338.980000000000        -0.000232727154
    3        299.538000000000        -0.000816302846
    4         51.148900000000        -0.005553812373
    5         23.015600000000         0.105006357147
    6         14.376500000000        -0.448750007723
    7          8.982790000000         0.433873046618
    8          5.612920000000         0.425515961703
    9          2.164840000000        -0.545668568505
   10          1.175380000000        -3.600068338000
   11         14.787766907000        -0.073537539497
   12         11.958781204000         0.126079371387
   13          2.479845506600        -0.242017816458
   14          0.554814777900        12.960117634012
   15          0.285817352000       -17.905268347698
   16          0.138494394700        13.567785828277
   17          0.064954523800        -6.379510310458
   18          0.029031304700         1.558680479948
 S 18
    1       8913.290000000001         0.000043145210
    2       1338.980000000000         0.000303852502
    3        299.538000000000         0.001065778776
    4         51.148900000000         0.007251151192
    5         23.015600000000        -0.137098072561
    6         14.376500000000         0.585895585676
    7          8.982790000000        -0.566471974112
    8          5.612920000000        -0.555560822965
    9          2.164840000000         0.712434094768
   10          1.175380000000        12.172727740943
   11         14.787766907000        -2.024044592033
   12         11.958781204000         3.470204083104
   13          2.479845506600        -6.661289675039
   14          0.554814777900       -14.697677943982
   15          0.285817352000        12.037962878412
   16          0.138494394700        -6.657601806751
   17          0.064954523800         2.756056157215
   18          0.029031304700        -0.664791730784
 P 33
    1        113.557000000000        -0.000034049682
    2         20.363900000000         0.001606141995
    3         12.727400000000        -0.015377434838
    4          7.949840000000         0.035079355300
    5          4.964770000000         0.002798936678
    6          2.301300000000        -0.049802895454
    7          1.195450000000        -0.044891206781
    8        113.557000000000         0.000503947436
    9         20.363900000000        -0.023771474149
   10         12.727400000000         0.227591518009
   11          7.949840000000        -0.519186965022
   12          4.964770000000        -0.041425260720
   13          2.301300000000         0.737100608573
   14          1.195450000000         0.664405865095
   15        113.557000000000        -0.000661386530
   16         20.363900000000         0.031197961698
   17         12.727400000000        -0.298693779658
   18          7.949840000000         0.681387067007
   19          4.964770000000         0.054366998410
   20          2.301300000000        -0.967379490630
   21          1.195450000000        -0.871974056013
   22          8.468130000000        -0.205838740265
   23          7.796201700000         0.246614762580
   24          0.668717580000         0.397380045084
   25          8.468130000000         3.046486742088
   26          7.796201700000        -3.649986409915
   27          0.668717580000        -5.881366342206
   28          8.468130000000        -3.998244959364
   29          7.796201700000         4.790285007177
   30          0.668717580000         7.718774221804
   31          0.591524239300        -0.358541724479
   32          0.591524239300         5.306545350519
   33          0.591524239300        -6.964372405181
 P 33
    1        113.557000000000         0.000032894959
    2         20.363900000000        -0.001551673071
    3         12.727400000000         0.014855941510
    4          7.949840000000        -0.033889712819
    5          4.964770000000        -0.002704016633
    6          2.301300000000         0.048113935107
    7          1.195450000000         0.043368816015
    8        113.557000000000        -0.000005230414
    9         20.363900000000         0.000246721485
   10         12.727400000000        -0.002362147043
   11          7.949840000000         0.005388583745
   12          4.964770000000         0.000429948172
   13          2.301300000000        -0.007650285206
   14          1.195450000000        -0.006895794552
   15        113.557000000000         0.000195346740
   16         20.363900000000        -0.009214611761
   17         12.727400000000         0.088222020451
   18          7.949840000000        -0.201254086473
   19          4.964770000000        -0.016057804923
   20          2.301300000000         0.285724641818
   21          1.195450000000         0.257545748325
   22          8.468130000000        -0.049322850222
   23          7.796201700000         0.059093555380
   24          0.668717580000         0.095219764848
   25          8.468130000000         0.007842506969
   26          7.796201700000        -0.009396083515
   27          0.668717580000        -0.015140278107
   28          8.468130000000        -0.292903785188
   29          7.796201700000         0.350927125524
   30          0.668717580000         0.565462649126
   31          0.591524239300        -0.243608453793
   32          0.591524239300         0.038734602481
   33          0.591524239300        -1.446668996198
 P 33
    1        113.557000000000         0.000009645227
    2         20.363900000000        -0.000454970608
    3         12.727400000000         0.004355954142
    4          7.949840000000        -0.009936902001
    5          4.964770000000        -0.000792852641
    6          2.301300000000         0.014107627898
    7          1.195450000000         0.012716297625
    8        113.557000000000        -0.000001533809
    9         20.363900000000         0.000072350613
   10         12.727400000000        -0.000692695188
   11          7.949840000000         0.001580192072
   12          4.964770000000         0.000126081495
   13          2.301300000000        -0.002243431781
   14          1.195450000000        -0.002022178812
   15        113.557000000000         0.000057278359
   16         20.363900000000        -0.002701851313
   17         12.727400000000         0.025867913698
   18          7.949840000000        -0.059010475091
   19          4.964770000000        -0.004708369972
   20          2.301300000000         0.083778407457
   21          1.195450000000         0.075515967067
   22          8.468130000000        -0.015018308135
   23          7.796201700000         0.017993388856
   24          0.668717580000         0.028993453595
   25          8.468130000000         0.002388250528
   26          7.796201700000        -0.002861355623
   27          0.668717580000        -0.004610614606
   28          8.468130000000        -0.089186498775
   29          7.796201700000         0.106854070290
   30          0.668717580000         0.172178156836
   31          0.591524239300        -0.078161187955
   32          0.591524239300         0.012429395953
   33          0.591524239300        -0.464161650633
 P 30
    1        113.557000000000         0.000019594212
    2         20.363900000000        -0.000924269598
    3         12.727400000000         0.008849090282
    4          7.949840000000        -0.020186746706
    5          4.964770000000        -0.001610674577
    6          2.301300000000         0.028659547109
    7          1.195450000000         0.025833069419
    8        113.557000000000         0.000123216515
    9         20.363900000000        -0.005812189912
   10         12.727400000000         0.055646743520
   11          7.949840000000        -0.126942621298
   12          4.964770000000        -0.010128588617
   13          2.301300000000         0.180223098261
   14          1.195450000000         0.162449036288
   15          8.468130000000        -0.029042064175
   16          7.796201700000         0.034795207900
   17          0.668717580000         0.056066883991
   18          8.468130000000        -0.182628523950
   19          7.796201700000         0.218806673692
   20          0.668717580000         0.352571780159
   21          0.591524239300        -0.131078686892
   22          0.591524239300        -0.824277054272
   23          0.244448438000        -0.118770644526
   24          0.244448438000        -0.746878987923
   25          0.110189224600         0.467081410793
   26          0.110189224600         2.937201298880
   27          0.048149776000        -0.480249462865
   28          0.048149776000        -3.020007462339
   29          0.016630967800         0.169354757295
   30          0.016630967800         1.064972832585
 P 30
    1        113.557000000000         0.000070432453
    2         20.363900000000        -0.003322337047
    3         12.727400000000         0.031808533499
    4          7.949840000000        -0.072562352559
    5          4.964770000000        -0.005789656859
    6          2.301300000000         0.103018291740
    7          1.195450000000         0.092858364853
    8        113.557000000000         0.000442908426
    9         20.363900000000        -0.020892230908
   10         12.727400000000         0.200025228432
   11          7.949840000000        -0.456302116115
   12          4.964770000000        -0.036407759440
   13          2.301300000000         0.647821671461
   14          1.195450000000         0.583931844647
   15          8.468130000000        -0.124996615021
   16          7.796201700000         0.149758060591
   17          0.668717580000         0.241311040130
   18          8.468130000000        -0.786030468006
   19          7.796201700000         0.941740689813
   20          0.668717580000         1.517463731128
   21          0.591524239300        -0.784470443214
   22          0.591524239300        -4.933074943770
   23          0.244448438000         0.825423412265
   24          0.244448438000         5.190604169054
   25          0.110189224600        -0.682590736030
   26          0.110189224600        -4.292413163414
   27          0.048149776000         0.310930261782
   28          0.048149776000         1.955258221547
   29          0.016630967800        -0.073311339164
   30          0.016630967800        -0.461012053998
 P 33
    1        113.557000000000        -0.000810239538
    2         20.363900000000         0.038219438912
    3         12.727400000000        -0.365918414011
    4          7.949840000000         0.834741437105
    5          4.964770000000         0.066602946521
    6          2.301300000000        -1.185099901855
    7          1.195450000000        -1.068222324548
    8        113.557000000000         0.000128846405
    9         20.363900000000        -0.006077754894
   10         12.727400000000         0.058189300916
   11          7.949840000000        -0.132742761258
   12          4.964770000000        -0.010591374330
   13          2.301300000000         0.188457678445
   14          1.195450000000         0.169871501156
   15        113.557000000000         0.000139888265
   16         20.363900000000        -0.006598605422
   17         12.727400000000         0.063175998899
   18          7.949840000000        -0.144118530505
   19          4.964770000000        -0.011499032339
   20          2.301300000000         0.204608096310
   21          1.195450000000         0.184429123586
   22          8.468130000000        -4.897661714297
   23          7.796201700000         5.867873459148
   24          0.668717580000         9.455134783300
   25          8.468130000000         0.778838944331
   26          7.796201700000        -0.933124547384
   27          0.668717580000        -1.503580202699
   28          8.468130000000         0.845583767379
   29          7.796201700000        -1.013091314904
   30          0.668717580000        -1.632433793417
   31          0.591524239300        -8.530767374970
   32          0.591524239300         1.356584885654
   33          0.591524239300         1.472841293736
 end
  // -----------------------------------------------
  // The basis set
  // -----------------------------------------------
  BAS[ATNO] = new BFNGauss[NSH];
  // Basis function   1 L = s
  InitBFNGauss(BAS[ATNO][  0]);
  BAS[ATNO][  0].l  = 0;
  BAS[ATNO][  0].ng = 18;
  BAS[ATNO][  0].a[  0] =      8913.290000000001;     BAS[ATNO][  0].d[  0] =         0.000050320398;
  BAS[ATNO][  0].a[  1] =      1338.980000000000;     BAS[ATNO][  0].d[  1] =         0.000354384157;
  BAS[ATNO][  0].a[  2] =       299.538000000000;     BAS[ATNO][  0].d[  2] =         0.001243021239;
  BAS[ATNO][  0].a[  3] =        51.148900000000;     BAS[ATNO][  0].d[  3] =         0.008457041128;
  BAS[ATNO][  0].a[  4] =        23.015600000000;     BAS[ATNO][  0].d[  4] =        -0.159897926208;
  BAS[ATNO][  0].a[  5] =        14.376500000000;     BAS[ATNO][  0].d[  5] =         0.683331919801;
  BAS[ATNO][  0].a[  6] =         8.982790000000;     BAS[ATNO][  0].d[  6] =        -0.660678098704;
  BAS[ATNO][  0].a[  7] =         5.612920000000;     BAS[ATNO][  0].d[  7] =        -0.647952387771;
  BAS[ATNO][  0].a[  8] =         2.164840000000;     BAS[ATNO][  0].d[  8] =         0.830914192924;
  BAS[ATNO][  0].a[  9] =         1.175380000000;     BAS[ATNO][  0].d[  9] =         0.726642691877;
  BAS[ATNO][  0].a[ 10] =        14.787766907000;     BAS[ATNO][  0].d[ 10] =         0.027656208289;
  BAS[ATNO][  0].a[ 11] =        11.958781204000;     BAS[ATNO][  0].d[ 11] =        -0.047416290780;
  BAS[ATNO][  0].a[ 12] =         2.479845506600;     BAS[ATNO][  0].d[ 12] =         0.091018752972;
  BAS[ATNO][  0].a[ 13] =         0.554814777900;     BAS[ATNO][  0].d[ 13] =        -0.183629347075;
  BAS[ATNO][  0].a[ 14] =         0.285817352000;     BAS[ATNO][  0].d[ 14] =         0.147371448396;
  BAS[ATNO][  0].a[ 15] =         0.138494394700;     BAS[ATNO][  0].d[ 15] =        -0.080060160763;
  BAS[ATNO][  0].a[ 16] =         0.064954523800;     BAS[ATNO][  0].d[ 16] =         0.033434191797;
  BAS[ATNO][  0].a[ 17] =         0.029031304700;     BAS[ATNO][  0].d[ 17] =        -0.008169749993;

FINAL SINGLE POINT ENERGY      -211.746213818609

DIPOLE MOMENT
-------------
                                X             Y             Z
Electronic contribution:      0.00000       0.00000       0.00000
Nuclear contribution   :      0.00000       0.00000       0.00000
                        -----------------------------------------
Total Dipole Moment    :      0.00000       0.00000       0.00000
                        -----------------------------------------
Magnitude (a.u.)       :      0.00000
Magnitude (Debye)      :      0.00000

Rotational constants in cm-1:     0.000000     0.000000     0.000000
Rotational constants in MHz :     0.000000     0.000000     0.000000

                             ****ORCA TERMINATED NORMALLY****
TOTAL RUN TIME: 0 days 0 hours 0 minutes 1 seconds 111 msec
