                         Program Version 4.2.0 -  RELEASE  -
|  1> # input to generate an atomic fitting density for At
|  2> # this file is use internally by ORCA
|  3> #
|  4> # atomic ground state (S=2): 1s2 2s2 2p6 3s2 3p6 4s2 3d10 4p6 5s2 4d10 5p6 6s2 4f14 5d10 6p5
|  5> #
|  6> ! RHF AllowRHF def2-SVP def2/J  NoMulliken NoLoewdin NoMayer NoPrintMOs
|  7>
|  8> %output print[p_atomdensfit] 2 end
|  9>
| 10> %scf
| 11>   guess hcore
| 12>   maxiter 1000
| 13>   maxdisk 500000
| 14>   SCFMode Conventional
| 15>   lshift 1.000000
| 16>   hftyp rohf
| 17>   rohf_case sahf
| 18>   rohf_numop   2
| 19>   rohf_norb[1] 3
| 20>   rohf_nel[1]  5
| 21> end
| 22>
| 23> %basis
| 24>   NewECP 85
| 25>     N_core 60
| 26>     lmax f
| 27>     s 7
| 28>       1      30.2008320000     49.9571580000  2
| 29>       2      13.6123060000    283.2103710000  2
| 30>       3       8.5293400000     62.2810520000  2
| 31>       4       5.8121630000    -19.8701980000  2
| 32>       5       5.7537150000    -26.4164520000  2
| 33>       6       2.5134720000     -0.9949700000  2
| 34>       7       2.5362610000     -1.4907010000  2
| 35>     p 8
| 36>       1      10.8540650000     71.9823710000  2
| 37>       2       9.4682290000    143.9035320000  2
| 38>       3       7.0311140000      4.8717590000  2
| 39>       4       6.1438580000      8.9830590000  2
| 40>       5       5.8121630000    -19.8701980000  2
| 41>       6       5.7537150000    -26.4164520000  2
| 42>       7       2.5134720000     -0.9949700000  2
| 43>       8       2.5362610000     -1.4907010000  2
| 44>     d 8
| 45>       1       8.3135150000     36.3632370000  2
| 46>       2       7.9989650000     54.5489700000  2
| 47>       3       5.1799660000      9.7762850000  2
| 48>       4       4.9422260000     14.2647550000  2
| 49>       5       5.8121630000    -19.8701980000  2
| 50>       6       5.7537150000    -26.4164520000  2
| 51>       7       2.5134720000     -0.9949700000  2
| 52>       8       2.5362610000     -1.4907010000  2
| 53>     f 4
| 54>       1       5.8121630000     19.8701980000  2
| 55>       2       5.7537150000     26.4164520000  2
| 56>       3       2.5134720000      0.9949700000  2
| 57>       4       2.5362610000      1.4907010000  2
| 58>   end
| 59>   NewGTO 85
| 60>     s 9
| 61>      1    9090.2800000000      0.0000868503
| 62>      2    1373.0700000000      0.0006005080
| 63>      3     307.9500000000      0.0020223720
| 64>      4      48.0176000000      0.0210053728
| 65>      5      23.9099000000     -0.3655977072
| 66>      6      14.9334000000      1.5692986229
| 67>      7       9.3317100000     -1.5295732817
| 68>      8       5.8320600000     -1.5366503430
| 69>      9       2.2878700000      1.9482365409
| 70>     s 1
| 71>      1       1.2537238008      1.0000000000
| 72>     s 3
| 73>      1      14.8057808760      0.3597476959
| 74>      2      11.8557836280     -0.6388515448
| 75>      3       2.5818782360      1.1943198423
| 76>     s 1
| 77>      1       0.6146069198      1.0000000000
| 78>     s 1
| 79>      1       0.3148671664      1.0000000000
| 80>     s 1
| 81>      1       0.1544166915      1.0000000000
| 82>     s 1
| 83>      1       0.0728664246      1.0000000000
| 84>     p 7
| 85>      1     124.6020000000      0.0005140380
| 86>      2      20.8899000000     -0.0177101479
| 87>      3      13.0585000000      0.1880368689
| 88>      4       8.1606100000     -0.4490967942
| 89>      5       5.0980800000     -0.0180209871
| 90>      6       2.3787600000      0.6460315736
| 91>      7       1.2375500000      0.5502810067
| 92>     p 3
| 93>      1       8.7977584321     -0.4996091715
| 94>      2       8.0996431502      0.5992471358
| 95>      3       0.6762971977      0.9653695793
| 96>     p 1
| 97>      1       0.6078501793      1.0000000000
| 98>     p 1
| 99>      1       0.2611656142      1.0000000000
|100>     p 1
|101>      1       0.1194861126      1.0000000000
|102>     p 1
|103>      1       0.0528990861      1.0000000000
|104>     s 1
|105>      1       0.0334507984      1.0000000000
|106>     p 1
|107>      1       0.0156924545      1.0000000000
|108>   end
|109>   NewAuxGTO 85
|110>     S 1
|111>      1 1310.72 1.0
|112>     S 1
|113>      1  655.36 1.0
|114>     S 1
|115>      1  327.68 1.0
|116>     S 1
|117>      1  163.84 1.0
|118>     S 1
|119>      1   81.82 1.0
|120>     S 1
|121>      1   40.96 1.0
|122>     S 1
|123>      1   20.48 1.0
|124>     S 1
|125>      1   10.24 1.0
|126>     S 1
|127>      1    5.12 1.0
|128>     S 1
|129>      1    2.56 1.0
|130>     S 1
|131>      1    1.28 1.0
|132>     S 1
|133>      1    0.64 1.0
|134>     S 1
|135>      1    0.32 1.0
|136>     S 1
|137>      1    0.16 1.0
|138>     S 1
|139>      1    0.08 1.0
|140>     S 1
|141>      1    0.04 1.0
|142>     S 1
|143>      1    0.02 1.0
|144>     S 1
|145>      1    0.01 1.0
|146>   end
|147> end
|148>
|149> * xyz 0 2
|150> 85  0.0 0.0 0.0
|151> *
|152>
|153>
|154>                          ****END OF INPUT****

CARTESIAN COORDINATES (ANGSTROEM)
---------------------------------
  At     0.000000    0.000000    0.000000

 Total Charge           Charge          ....    0
 Multiplicity           Mult            ....    2
 Number of Electrons    NEL             ....   25
 Basis Dimension        Dim             ....   29

ORBITAL ENERGIES
----------------

  NO   OCC          E(Eh)            E(eV)
   0   2.0000     -11.753252      -319.8223
   1   2.0000      -8.686996      -236.3852
   2   2.0000      -8.686996      -236.3852
   3   2.0000      -8.683828      -236.2990
   4   2.0000      -3.268482       -88.9399
   5   2.0000      -2.181768       -59.3689
   6   2.0000      -2.181768       -59.3689
   7   2.0000      -2.176606       -59.2285
   8   2.0000      -0.724984       -19.7278
   9   2.0000      -0.394695       -10.7402
  10   1.6667      -0.398523       -10.8444
  11   1.6667      -0.398523       -10.8444
  12   1.6667      -0.097150        -2.6436
  13   0.0000       0.006939         0.1888
  14   0.0000       0.006939         0.1888
  15   0.0000       0.008755         0.2382
  16   0.0000       0.186586         5.0773
  17   0.0000       0.186586         5.0773

CleanUpVectors: The p-vectors have cracked symmetry
CleanUpVectors: The p-vectors have cracked symmetry
CleanUpVectors: The p-vectors have cracked symmetry
CleanUpVectors: The p-vectors have cracked symmetry
CleanUpVectors: The p-vectors have cracked symmetry
CleanUpVectors: The p-vectors have cracked symmetry
CleanUpVectors: The p-vectors have cracked symmetry
CleanUpVectors: The p-vectors have cracked symmetry
CleanUpVectors: The p-vectors have cracked symmetry
CleanUpVectors: The p-vectors have cracked symmetry
CleanUpVectors: The p-vectors have cracked symmetry
CleanUpVectors: The p-vectors have cracked symmetry
CleanUpVectors: The p-vectors have cracked symmetry
CleanUpVectors: The p-vectors have cracked symmetry
CleanUpVectors: The p-vectors have cracked symmetry
CleanUpVectors: The p-vectors have cracked symmetry
CleanUpVectors: The p-vectors have cracked symmetry
CleanUpVectors: The p-vectors have cracked symmetry
CleanUpVectors: The p-vectors have cracked symmetry
CleanUpVectors: The p-vectors have cracked symmetry
--------------------------
ATOM BASIS FOR ELEMENT At
--------------------------
 NewGTO At
 S 18
    1       9090.280000000001         0.000037347006
    2       1373.070000000000         0.000258227963
    3        307.950000000000         0.000869652030
    4         48.017600000000         0.009032643399
    5         23.909900000000        -0.157212811598
    6         14.933400000000         0.674823293158
    7          9.331710000000        -0.657740766493
    8          5.832060000000        -0.660784015078
    9          2.287870000000         0.837772606944
   10          1.253723800800         0.739967804767
   11         14.805780876000         0.028276461411
   12         11.855783628000        -0.050214250876
   13          2.581878236000         0.093874510715
   14          0.614606919800        -0.193762327920
   15          0.314867166400         0.151997363744
   16          0.154416691500        -0.083531838508
   17          0.072866424600         0.035036533389
   18          0.033450798400        -0.008724412860
 P 30
    1        124.602000000000        -0.000383234972
    2         20.889900000000         0.013203592020
    3         13.058500000000        -0.140188671249
    4          8.160610000000         0.334818821487
    5          5.098080000000         0.013435334522
    6          2.378760000000        -0.481641225031
    7          1.237550000000        -0.410255518475
    8        124.602000000000         0.000374070030
    9         20.889900000000        -0.012887832343
   10         13.058500000000         0.136836104040
   11          8.160610000000        -0.326811736521
   12          5.098080000000        -0.013114032797
   13          2.378760000000         0.470122929272
   14          1.237550000000         0.400444389042
   15          8.797758432100         0.063541325188
   16          8.099643150200        -0.076213487053
   17          0.676297197700        -0.122777694774
   18          8.797758432100        -0.062021754731
   19          8.099643150200         0.074390865901
   20          0.676297197700         0.119841505496
   21          0.607850179300         0.212975582061
   22          0.607850179300        -0.207882339174
   23          0.261165614200        -0.085773311982
   24          0.261165614200         0.083722070675
   25          0.119486112600         0.049194881822
   26          0.119486112600        -0.048018401967
   27          0.052899086100        -0.019048488090
   28          0.052899086100         0.018592949594
   29          0.015692454500         0.003938206593
   30          0.015692454500        -0.003844025642
 S 18
    1       9090.280000000001         0.000025591224
    2       1373.070000000000         0.000176945095
    3        307.950000000000         0.000595910139
    4         48.017600000000         0.006189422432
    5         23.909900000000        -0.107726659816
    6         14.933400000000         0.462407984431
    7          9.331710000000        -0.450702554574
    8          5.832060000000        -0.452787874477
    9          2.287870000000         0.574065457604
   10          1.253723800800         1.422691800832
   11         14.805780876000         0.119307184124
   12         11.855783628000        -0.211869540103
   13          2.581878236000         0.396085753856
   14          0.614606919800        -2.033294702554
   15          0.314867166400         0.031991400171
   16          0.154416691500        -0.253649851535
   17          0.072866424600         0.108041335788
   18          0.033450798400        -0.027168799870
 P 30
    1        124.602000000000         0.000245824029
    2         20.889900000000        -0.008469373671
    3         13.058500000000         0.089923275377
    4          8.160610000000        -0.214767747049
    5          5.098080000000        -0.008618023662
    6          2.378760000000         0.308946194622
    7          1.237550000000         0.263156213937
    8        124.602000000000         0.000414136854
    9         20.889900000000        -0.014268254371
   10         13.058500000000         0.151492686098
   11          8.160610000000        -0.361816701529
   12          5.098080000000        -0.014518683266
   13          2.378760000000         0.520478026258
   14          1.237550000000         0.443336183491
   15          8.797758432100        -0.260586527774
   16          8.099643150200         0.312555772201
   17          0.676297197700         0.503518191896
   18          8.797758432100        -0.439007063386
   19          8.099643150200         0.526559039219
   20          0.676297197700         0.848271185291
   21          0.607850179300        -1.170975054649
   22          0.607850179300        -1.972727924313
   23          0.261165614200        -0.016022019304
   24          0.261165614200        -0.026992107781
   25          0.119486112600        -0.080359067630
   26          0.119486112600        -0.135379977615
   27          0.052899086100         0.030751514102
   28          0.052899086100         0.051806714705
   29          0.015692454500        -0.006662380958
   30          0.015692454500        -0.011224034967
 S 18
    1       9090.280000000001        -0.000006244097
    2       1373.070000000000        -0.000043173484
    3        307.950000000000        -0.000145398304
    4         48.017600000000        -0.001510179918
    5         23.909900000000         0.026284623499
    6         14.933400000000        -0.112824622932
    7          9.331710000000         0.109968572098
    8          5.832060000000         0.110477376962
    9          2.287870000000        -0.140068340023
   10          1.253723800800        -0.600282906062
   11         14.805780876000        -0.036732518229
   12         11.855783628000         0.065230788918
   13          2.581878236000        -0.121947620176
   14          0.614606919800         1.416620464266
   15          0.314867166400        -0.536170316280
   16          0.154416691500         0.225814003480
   17          0.072866424600        -2.338619710342
   18          0.033450798400         2.420260329425
 S 18
    1       9090.280000000001         0.000007640909
    2       1373.070000000000         0.000052831448
    3        307.950000000000         0.000177924094
    4         48.017600000000         0.001848009136
    5         23.909900000000        -0.032164528074
    6         14.933400000000         0.138063638306
    7          9.331710000000        -0.134568685172
    8          5.832060000000        -0.135191310349
    9          2.287870000000         0.171401810459
   10          1.253723800800         0.445388163765
   11         14.805780876000         0.076669446495
   12         11.855783628000        -0.136152072384
   13          2.581878236000         0.254533503036
   14          0.614606919800        -0.273683867355
   15          0.314867166400        -4.180745102597
   16          0.154416691500         9.377498056526
   17          0.072866424600        -8.598627865282
   18          0.033450798400         3.178994853342
 S 18
    1       9090.280000000001        -0.000025186876
    2       1373.070000000000        -0.000174149318
    3        307.950000000000        -0.000586494609
    4         48.017600000000        -0.006091628003
    5         23.909900000000         0.106024551545
    6         14.933400000000        -0.455101822184
    7          9.331710000000         0.443581341057
    8          5.832060000000         0.445633712382
    9          2.287870000000        -0.564995079248
   10          1.253723800800        -3.980725918427
   11         14.805780876000        -0.085087467022
   12         11.855783628000         0.151101064357
   13          2.581878236000        -0.282480336509
   14          0.614606919800        13.678958298425
   15          0.314867166400       -18.742814333228
   16          0.154416691500        14.404538912727
   17          0.072866424600        -6.845845312328
   18          0.033450798400         1.710193980134
 S 18
    1       9090.280000000001         0.000049998893
    2       1373.070000000000         0.000345706751
    3        307.950000000000         0.001164260348
    4         48.017600000000         0.012092593576
    5         23.909900000000        -0.210471126959
    6         14.933400000000         0.903430309304
    7          9.331710000000        -0.880560807755
    8          5.832060000000        -0.884635004715
    9          2.287870000000         1.121581268892
   10          1.253723800800        13.117674022668
   11         14.805780876000        -2.133268399106
   12         11.855783628000         3.788326729466
   13          2.581878236000        -7.082199016258
   14          0.614606919800       -15.778212144915
   15          0.314867166400        12.666572557125
   16          0.154416691500        -7.102068025866
   17          0.072866424600         2.956462477283
   18          0.033450798400        -0.726767980043
 P 30
    1        124.602000000000        -0.000922722290
    2         20.889900000000         0.031790545115
    3         13.058500000000        -0.337534988296
    4          8.160610000000         0.806149783607
    5          5.098080000000         0.032348516041
    6          2.378760000000        -1.159656938075
    7          1.237550000000        -0.987780185037
    8        124.602000000000        -0.000169967219
    9         20.889900000000         0.005855879504
   10         13.058500000000        -0.062174593503
   11          8.160610000000         0.148494339362
   12          5.098080000000         0.005958658821
   13          2.378760000000        -0.213611036569
   14          1.237550000000        -0.181951008355
   15          8.797758432100        -5.053800428490
   16          8.099643150200         6.061689025013
   17          0.676297197700         9.765203426650
   18          8.797758432100        -0.930919751090
   19          8.099643150200         1.116574767484
   20          0.676297197700         1.798769237509
   21          0.607850179300        -8.861957482812
   22          0.607850179300        -1.632389598838
   23          0.261165614200         0.436772066996
   24          0.261165614200         0.080454254109
   25          0.119486112600        -0.062512747077
   26          0.119486112600        -0.011514968145
   27          0.052899086100         0.000149281174
   28          0.052899086100         0.000027497879
   29          0.015692454500         0.002113120099
   30          0.015692454500         0.000389240783
 P 30
    1        124.602000000000         0.000181672195
    2         20.889900000000        -0.006259150959
    3         13.058500000000         0.066456313910
    4          8.160610000000        -0.158720562122
    5          5.098080000000        -0.006369008284
    6          2.378760000000         0.228321590879
    7          1.237550000000         0.194481260692
    8        124.602000000000         0.000176300334
    9         20.889900000000        -0.006074074261
   10         13.058500000000         0.064491268617
   11          8.160610000000        -0.154027357290
   12          5.098080000000        -0.006180683217
   13          2.378760000000         0.221570354749
   14          1.237550000000         0.188730648545
   15          8.797758432100        -0.232529713474
   16          8.099643150200         0.278903536477
   17          0.676297197700         0.449305426073
   18          8.797758432100        -0.225654047458
   19          8.099643150200         0.270656643903
   20          0.676297197700         0.436019923750
   21          0.607850179300        -1.201359266707
   22          0.607850179300        -1.165836300808
   23          0.261165614200         0.118295707939
   24          0.261165614200         0.114797824737
   25          0.119486112600         0.554645244574
   26          0.119486112600         0.538244951460
   27          0.052899086100         0.241605842039
   28          0.052899086100         0.234461804176
   29          0.015692454500        -0.000165135128
   30          0.015692454500        -0.000160252251
 P 30
    1        124.602000000000         0.000060403017
    2         20.889900000000        -0.002081064752
    3         13.058500000000         0.022095631393
    4          8.160610000000        -0.052771976489
    5          5.098080000000        -0.002117590506
    6          2.378760000000         0.075913173848
    7          1.237550000000         0.064661820620
    8        124.602000000000         0.000032418541
    9         20.889900000000        -0.001116915779
   10         13.058500000000         0.011858813779
   11          8.160610000000        -0.028322930936
   12          5.098080000000        -0.001136519297
   13          2.378760000000         0.040742904153
   14          1.237550000000         0.034704257856
   15          8.797758432100        -0.079974693525
   16          8.099643150200         0.095924191879
   17          0.676297197700         0.154531062773
   18          8.797758432100        -0.042922738015
   19          8.099643150200         0.051482897600
   20          0.676297197700         0.082937439711
   21          0.607850179300        -0.433134145887
   22          0.607850179300        -0.232464829183
   23          0.261165614200         0.117058613883
   24          0.261165614200         0.062825826454
   25          0.119486112600         0.094600545257
   26          0.119486112600         0.050772491161
   27          0.052899086100         0.415188095342
   28          0.052899086100         0.222833112050
   29          0.015692454500        -1.083352318850
   30          0.015692454500        -0.581439524310
 P 30
    1        124.602000000000         0.000103237523
    2         20.889900000000        -0.003556841717
    3         13.058500000000         0.037764641124
    4          8.160610000000        -0.090194967414
    5          5.098080000000        -0.003619269532
    6          2.378760000000         0.129746632533
    7          1.237550000000         0.110516436787
    8        124.602000000000         0.000107581495
    9         20.889900000000        -0.003706504549
   10         13.058500000000         0.039353680943
   11          8.160610000000        -0.093990141694
   12          5.098080000000        -0.003771559167
   13          2.378760000000         0.135206040047
   14          1.237550000000         0.115166686691
   15          8.797758432100        -0.131932061266
   16          8.099643150200         0.158243511816
   17          0.676297197700         0.254925661388
   18          8.797758432100        -0.137483426049
   19          8.099643150200         0.164901995358
   20          0.676297197700         0.265652283297
   21          0.607850179300        -0.627288550901
   22          0.607850179300        -0.653683253878
   23          0.261165614200        -0.425902767941
   24          0.261165614200        -0.443823670594
   25          0.119486112600         1.940876612960
   26          0.119486112600         2.022543752651
   27          0.052899086100        -1.959355158370
   28          0.052899086100        -2.041799828141
   29          0.015692454500         0.641320728915
   30          0.015692454500         0.668305870167
 P 30
    1        124.602000000000         0.000286788195
    2         20.889900000000        -0.009880711823
    3         13.058500000000         0.104908108285
    4          8.160610000000        -0.250556688122
    5          5.098080000000        -0.010054132879
    6          2.378760000000         0.360429051363
    7          1.237550000000         0.307008618979
    8        124.602000000000         0.000426264807
    9         20.889900000000        -0.014686098635
   10         13.058500000000         0.155929132788
   11          8.160610000000        -0.372412463933
   12          5.098080000000        -0.014943861313
   13          2.378760000000         0.535720168147
   14          1.237550000000         0.456319234979
   15          8.797758432100        -0.427653810496
   16          8.099643150200         0.512941586489
   17          0.676297197700         0.826333867901
   18          8.797758432100        -0.635639026324
   19          8.099643150200         0.762405671585
   20          0.676297197700         1.228213200304
   21          0.607850179300        -2.813994233312
   22          0.607850179300        -4.182552594284
   23          0.261165614200         3.105780324859
   24          0.261165614200         4.616245975645
   25          0.119486112600        -2.552812751588
   26          0.119486112600        -3.794348073099
   27          0.052899086100         1.091898844807
   28          0.052899086100         1.622933086351
   29          0.015692454500        -0.217712628584
   30          0.015692454500        -0.323595019745
 P 15
    1        124.602000000000        -0.000938294211
    2         20.889900000000         0.032327044392
    3         13.058500000000        -0.343231250388
    4          8.160610000000         0.819754419015
    5          5.098080000000         0.032894431670
    6          2.378760000000        -1.179227382875
    7          1.237550000000        -1.004450026739
    8          8.797758432100        -5.138776558076
    9          8.099643150200         6.163612098429
   10          0.676297197700         9.929398511826
   11          0.607850179300        -9.010781640496
   12          0.261165614200         0.443934662365
   13          0.119486112600        -0.063438873160
   14          0.052899086100         0.000105640738
   15          0.015692454500         0.002158137551
 end
  // -----------------------------------------------
  // The basis set
  // -----------------------------------------------
  BAS[ATNO] = new BFNGauss[NSH];
  // Basis function   1 L = s
  InitBFNGauss(BAS[ATNO][  0]);
  BAS[ATNO][  0].l  = 0;
  BAS[ATNO][  0].ng = 18;
  BAS[ATNO][  0].a[  0] =      9090.280000000001;     BAS[ATNO][  0].d[  0] =         0.000037347006;
  BAS[ATNO][  0].a[  1] =      1373.070000000000;     BAS[ATNO][  0].d[  1] =         0.000258227963;
  BAS[ATNO][  0].a[  2] =       307.950000000000;     BAS[ATNO][  0].d[  2] =         0.000869652030;
  BAS[ATNO][  0].a[  3] =        48.017600000000;     BAS[ATNO][  0].d[  3] =         0.009032643399;
  BAS[ATNO][  0].a[  4] =        23.909900000000;     BAS[ATNO][  0].d[  4] =        -0.157212811598;
  BAS[ATNO][  0].a[  5] =        14.933400000000;     BAS[ATNO][  0].d[  5] =         0.674823293158;
  BAS[ATNO][  0].a[  6] =         9.331710000000;     BAS[ATNO][  0].d[  6] =        -0.657740766493;
  BAS[ATNO][  0].a[  7] =         5.832060000000;     BAS[ATNO][  0].d[  7] =        -0.660784015078;
  BAS[ATNO][  0].a[  8] =         2.287870000000;     BAS[ATNO][  0].d[  8] =         0.837772606944;
  BAS[ATNO][  0].a[  9] =         1.253723800800;     BAS[ATNO][  0].d[  9] =         0.739967804767;
  BAS[ATNO][  0].a[ 10] =        14.805780876000;     BAS[ATNO][  0].d[ 10] =         0.028276461411;
  BAS[ATNO][  0].a[ 11] =        11.855783628000;     BAS[ATNO][  0].d[ 11] =        -0.050214250876;
  BAS[ATNO][  0].a[ 12] =         2.581878236000;     BAS[ATNO][  0].d[ 12] =         0.093874510715;
  BAS[ATNO][  0].a[ 13] =         0.614606919800;     BAS[ATNO][  0].d[ 13] =        -0.193762327920;
  BAS[ATNO][  0].a[ 14] =         0.314867166400;     BAS[ATNO][  0].d[ 14] =         0.151997363744;
  BAS[ATNO][  0].a[ 15] =         0.154416691500;     BAS[ATNO][  0].d[ 15] =        -0.083531838508;
  BAS[ATNO][  0].a[ 16] =         0.072866424600;     BAS[ATNO][  0].d[ 16] =         0.035036533389;
  BAS[ATNO][  0].a[ 17] =         0.033450798400;     BAS[ATNO][  0].d[ 17] =        -0.008724412860;

FINAL SINGLE POINT ENERGY      -232.006603525866

DIPOLE MOMENT
-------------
                                X             Y             Z
Electronic contribution:     -0.00000       0.00000      -0.00000
Nuclear contribution   :      0.00000       0.00000       0.00000
                        -----------------------------------------
Total Dipole Moment    :     -0.00000       0.00000      -0.00000
                        -----------------------------------------
Magnitude (a.u.)       :      0.00000
Magnitude (Debye)      :      0.00000

Rotational constants in cm-1:     0.000000     0.000000     0.000000
Rotational constants in MHz :     0.000000     0.000000     0.000000

                             ****ORCA TERMINATED NORMALLY****
TOTAL RUN TIME: 0 days 0 hours 0 minutes 1 seconds 222 msec
