                         Program Version 4.2.0 -  RELEASE  -
|  1> #
|  2> # 85_At CCSD(T)/Def2-QZVPPD
|  3> #
|  4> ! CCSD(T) Def2-QZVPPD tightscf slowconv
|  5>
|  6> *xyz 0 2
|  7>  At 0.0 0.0 0.0
|  8> *
|  9>
| 10> %maxcore 5000
| 11>
| 12> %pal
| 13> nprocs 24
| 14> end
| 15>
| 16>
| 17>                          ****END OF INPUT****

CARTESIAN COORDINATES (ANGSTROEM)
---------------------------------
  At     0.000000    0.000000    0.000000

 Total Charge           Charge          ....    0
 Multiplicity           Mult            ....    2
 Number of Electrons    NEL             ....   25
 Basis Dimension        Dim             ....   91

ORBITAL ENERGIES
----------------
                 SPIN UP ORBITALS
  NO   OCC          E(Eh)            E(eV)
   0   1.0000      -7.815162      -212.6614
   1   1.0000      -5.118127      -139.2713
   2   1.0000      -5.097443      -138.7085
   3   1.0000      -5.097443      -138.7085
   4   1.0000      -1.839128       -50.0452
   5   1.0000      -1.832534       -49.8658
   6   1.0000      -1.832534       -49.8658
   7   1.0000      -1.813642       -49.3517
   8   1.0000      -1.813642       -49.3517
   9   1.0000      -0.978512       -26.6267
  10   1.0000      -0.432248       -11.7621
  11   1.0000      -0.377394       -10.2694
  12   1.0000      -0.377394       -10.2694
  13   0.0000       0.037416         1.0181
  14   0.0000       0.040650         1.1062
  15   0.0000       0.040650         1.1062
  16   0.0000       0.048667         1.3243
  17   0.0000       0.129048         3.5116

                 SPIN DOWN ORBITALS
  NO   OCC          E(Eh)            E(eV)
   0   1.0000      -7.807963      -212.4655
   1   1.0000      -5.101480      -138.8183
   2   1.0000      -5.097116      -138.6996
   3   1.0000      -5.097116      -138.6996
   4   1.0000      -1.825872       -49.6845
   5   1.0000      -1.822505       -49.5929
   6   1.0000      -1.822505       -49.5929
   7   1.0000      -1.813466       -49.3469
   8   1.0000      -1.813466       -49.3469
   9   1.0000      -0.897699       -24.4276
  10   1.0000      -0.359236        -9.7753
  11   1.0000      -0.359236        -9.7753
  12   0.0000      -0.047907        -1.3036
  13   0.0000       0.040850         1.1116
  14   0.0000       0.040850         1.1116
  15   0.0000       0.042385         1.1534
  16   0.0000       0.051965         1.4140

E(0)                                       ...   -261.361368825
E(0)                                       ...   -261.361368825
E(CORR)                                    ...     -0.523302271
E(TOT)                                     ...   -261.884671096
E(CCSD(T))                                 ...   -261.896347350

MULLIKEN ATOMIC CHARGES AND SPIN DENSITIES
------------------------------------------
   0 At:   -0.000000    1.000000
Sum of atomic charges       :   -0.0000000

LOEWDIN ATOMIC CHARGES AND SPIN DENSITIES
-----------------------------------------
   0 At:   -0.000000    1.000000

FINAL SINGLE POINT ENERGY      -261.896347349799

DIPOLE MOMENT
-------------
                                X             Y             Z
Electronic contribution:      0.00000      -0.00000       0.00000
Nuclear contribution   :      0.00000       0.00000       0.00000
                        -----------------------------------------
Total Dipole Moment    :      0.00000      -0.00000       0.00000
                        -----------------------------------------
Magnitude (a.u.)       :      0.00000
Magnitude (Debye)      :      0.00000

Rotational constants in cm-1:     0.000000     0.000000     0.000000
Rotational constants in MHz :     0.000000     0.000000     0.000000

                             ****ORCA TERMINATED NORMALLY****
TOTAL RUN TIME: 0 days 0 hours 0 minutes 30 seconds 789 msec
