                         Program Version 4.2.0 -  RELEASE  -
|  1> # input to generate an atomic fitting density for Rn
|  2> # this file is use internally by ORCA
|  3> #
|  4> # atomic ground state (S=1): 1s2 2s2 2p6 3s2 3p6 4s2 3d10 4p6 5s2 4d10 5p6 6s2 4f14 5d10 6p6
|  5> #
|  6> ! RHF AllowRHF def2-SVP def2/J  NoMulliken NoLoewdin NoMayer NoPrintMOs
|  7>
|  8> %output print[p_atomdensfit] 2 end
|  9>
| 10> %scf
| 11>   guess hcore
| 12>   maxiter 1000
| 13>   maxdisk 500000
| 14>   SCFMode Conventional
| 15>   lshift 1.000000
| 16>   hftyp rohf
| 17>   rohf_case sahf
| 18>   rohf_numop   2
| 19>   rohf_norb[1] 3
| 20>   rohf_nel[1]  6
| 21> end
| 22>
| 23> %basis
| 24>   NewECP 86
| 25>     N_core 60
| 26>     lmax f
| 27>     s 7
| 28>       1      30.1512420000     49.9655510000  2
| 29>       2      14.5212410000    283.0700000000  2
| 30>       3       8.0520380000     62.0028700000  2
| 31>       4       6.3485710000    -21.7972900000  2
| 32>       5       6.2959490000    -28.9468050000  2
| 33>       6       2.8821180000     -1.4473650000  2
| 34>       7       2.9080480000     -2.1779640000  2
| 35>     p 8
| 36>       1      11.0099420000     71.9691190000  2
| 37>       2       9.6176250000    143.8605590000  2
| 38>       3       7.3360080000      4.7147610000  2
| 39>       4       6.4062530000      9.0130650000  2
| 40>       5       6.3485710000    -21.7972900000  2
| 41>       6       6.2959490000    -28.9468050000  2
| 42>       7       2.8821180000     -1.4473650000  2
| 43>       8       2.9080480000     -2.1779640000  2
| 44>     d 8
| 45>       1       8.3692200000     36.3683650000  2
| 46>       2       8.1169750000     54.5517610000  2
| 47>       3       5.3536560000      9.6344870000  2
| 48>       4       5.0972120000     14.3879020000  2
| 49>       5       6.3485710000    -21.7972900000  2
| 50>       6       6.2959490000    -28.9468050000  2
| 51>       7       2.8821180000     -1.4473650000  2
| 52>       8       2.9080480000     -2.1779640000  2
| 53>     f 4
| 54>       1       6.3485710000     21.7972900000  2
| 55>       2       6.2959490000     28.9468050000  2
| 56>       3       2.8821180000      1.4473650000  2
| 57>       4       2.9080480000      2.1779640000  2
| 58>   end
| 59>   NewGTO 86
| 60>     s 9
| 61>      1   12715.6000000000      0.0001169525
| 62>      2    1913.3000000000      0.0008410624
| 63>      3     429.9560000000      0.0031850883
| 64>      4     100.9780000000      0.0069225903
| 65>      5      24.4708000000     -0.2498826182
| 66>      6      15.2922000000      1.3432711735
| 67>      7       9.5548300000     -1.4279547084
| 68>      8       5.9666100000     -1.5178936391
| 69>      9       2.3893900000      1.9738912834
| 70>     s 1
| 71>      1       1.3276477516      1.0000000000
| 72>     s 3
| 73>      1      17.1951953410      0.3648927886
| 74>      2      14.2303037200     -0.6069497981
| 75>      3       3.0760339153      1.1700485124
| 76>     s 1
| 77>      1       0.6997386676      1.0000000000
| 78>     s 1
| 79>      1       0.3317423489      1.0000000000
| 80>     s 1
| 81>      1       0.1609343188      1.0000000000
| 82>     s 1
| 83>      1       0.0758835962      1.0000000000
| 84>     p 7
| 85>      1     131.7080000000      0.0006384637
| 86>      2      21.4016000000     -0.0157575035
| 87>      3      13.3826000000      0.1856401548
| 88>      4       8.3688000000     -0.4611170697
| 89>      5       5.2294500000     -0.0018761012
| 90>      6       2.4768500000      0.6560984403
| 91>      7       1.3018000000      0.5378156648
| 92>     p 3
| 93>      1       9.0768547920     -0.5029229556
| 94>      2       8.3822367043      0.5995916609
| 95>      3       0.7061869230      0.9663007655
| 96>     p 1
| 97>      1       0.6455386037      1.0000000000
| 98>     p 1
| 99>      1       0.2838050092      1.0000000000
|100>     p 1
|101>      1       0.1316051858      1.0000000000
|102>     p 1
|103>      1       0.0589582598      1.0000000000
|104>     s 1
|105>      1       0.0367021679      1.0000000000
|106>     p 1
|107>      1       0.0157689231      1.0000000000
|108>   end
|109>   NewAuxGTO 86
|110>     S 1
|111>      1 1310.72 1.0
|112>     S 1
|113>      1  655.36 1.0
|114>     S 1
|115>      1  327.68 1.0
|116>     S 1
|117>      1  163.84 1.0
|118>     S 1
|119>      1   81.82 1.0
|120>     S 1
|121>      1   40.96 1.0
|122>     S 1
|123>      1   20.48 1.0
|124>     S 1
|125>      1   10.24 1.0
|126>     S 1
|127>      1    5.12 1.0
|128>     S 1
|129>      1    2.56 1.0
|130>     S 1
|131>      1    1.28 1.0
|132>     S 1
|133>      1    0.64 1.0
|134>     S 1
|135>      1    0.32 1.0
|136>     S 1
|137>      1    0.16 1.0
|138>     S 1
|139>      1    0.08 1.0
|140>     S 1
|141>      1    0.04 1.0
|142>     S 1
|143>      1    0.02 1.0
|144>     S 1
|145>      1    0.01 1.0
|146>   end
|147> end
|148>
|149> * xyz 0 1
|150> 86  0.0 0.0 0.0
|151> *
|152>
|153>
|154>                          ****END OF INPUT****

CARTESIAN COORDINATES (ANGSTROEM)
---------------------------------
  Rn     0.000000    0.000000    0.000000

 Total Charge           Charge          ....    0
 Multiplicity           Mult            ....    1
 Number of Electrons    NEL             ....   26
 Basis Dimension        Dim             ....   29

ORBITAL ENERGIES
----------------

  NO   OCC          E(Eh)            E(eV)
   0   2.0000     -12.656515      -344.4013
   1   2.0000      -9.495941      -258.3977
   2   2.0000      -9.494042      -258.3460
   3   2.0000      -9.493406      -258.3287
   4   2.0000      -3.696945      -100.5990
   5   2.0000      -2.520982       -68.5994
   6   2.0000      -2.515844       -68.4596
   7   2.0000      -2.233119       -60.7663
   8   2.0000      -0.542187       -14.7537
   9   2.0000      -0.524966       -14.2851
  10   2.0000      -0.917857       -24.9761
  11   2.0000      -0.831949       -22.6385
  12   2.0000      -0.081335        -2.2132
  13   0.0000      -0.031010        -0.8438
  14   0.0000       0.001740         0.0473
  15   0.0000       0.001740         0.0473
  16   0.0000       0.174886         4.7589
  17   0.0000       0.174886         4.7589

CleanUpVectors: The p-vectors have cracked symmetry
CleanUpVectors: The p-vectors have cracked symmetry
CleanUpVectors: The p-vectors have cracked symmetry
CleanUpVectors: The p-vectors have cracked symmetry
CleanUpVectors: The p-vectors have cracked symmetry
CleanUpVectors: The p-vectors have cracked symmetry
CleanUpVectors: The p-vectors have cracked symmetry
CleanUpVectors: The p-vectors have cracked symmetry
CleanUpVectors: The p-vectors have cracked symmetry
CleanUpVectors: The p-vectors have cracked symmetry
CleanUpVectors: The p-vectors have cracked symmetry
CleanUpVectors: The p-vectors have cracked symmetry
CleanUpVectors: The p-vectors have cracked symmetry
CleanUpVectors: The p-vectors have cracked symmetry
CleanUpVectors: The p-vectors have cracked symmetry
CleanUpVectors: The p-vectors have cracked symmetry
CleanUpVectors: The p-vectors have cracked symmetry
CleanUpVectors: The p-vectors have cracked symmetry
CleanUpVectors: The p-vectors have cracked symmetry
CleanUpVectors: The p-vectors have cracked symmetry
--------------------------
ATOM BASIS FOR ELEMENT Rn
--------------------------
 NewGTO Rn
 S 18
    1      12715.600000000000         0.000051091925
    2       1913.300000000000         0.000367426920
    3        429.956000000000         0.001391439188
    4        100.978000000000         0.003024206088
    5         24.470800000000        -0.109163839315
    6         15.292200000000         0.586822083092
    7          9.554830000000        -0.623816972385
    8          5.966610000000        -0.663107736384
    9          2.389390000000         0.862315083934
   10          1.327647751600         0.743601199367
   11         17.195195341000         0.026784877020
   12         14.230303720000        -0.044553019975
   13          3.076033915300         0.085887160532
   14          0.699738667600        -0.179521893238
   15          0.331742348900         0.126056193173
   16          0.160934318800        -0.074635932519
   17          0.075883596200         0.032858537252
   18          0.036702167900        -0.008996137146
 P 30
    1        131.708000000000        -0.000010943756
    2         21.401600000000         0.000270095661
    3         13.382600000000        -0.003182014226
    4          8.368800000000         0.007903899226
    5          5.229450000000         0.000032157809
    6          2.476850000000        -0.011246029035
    7          1.301800000000        -0.009218571803
    8        131.708000000000        -0.000667870582
    9         21.401600000000         0.016483275448
   10         13.382600000000        -0.194190520463
   11          8.368800000000         0.482355575796
   12          5.229450000000         0.001962512199
   13          2.476850000000        -0.686317557396
   14          1.301800000000        -0.562586817347
   15          9.076854792000         0.001593853100
   16          8.382236704300        -0.001900213575
   17          0.706186923000        -0.003062380536
   18          9.076854792000         0.097268943791
   19          8.382236704300        -0.115965371857
   20          0.706186923000        -0.186889569860
   21          0.645538603700         0.005268622900
   22          0.645538603700         0.321531127839
   23          0.283805009200        -0.002038057161
   24          0.283805009200        -0.124377627734
   25          0.131605185800         0.001146556334
   26          0.131605185800         0.069971519727
   27          0.058958259800        -0.000422910193
   28          0.058958259800        -0.025809171389
   29          0.015768923100         0.000077525195
   30          0.015768923100         0.004731172424
 S 18
    1      12715.600000000000         0.000038870989
    2       1913.300000000000         0.000279540217
    3        429.956000000000         0.001058613813
    4        100.978000000000         0.002300830943
    5         24.470800000000        -0.083052388640
    6         15.292200000000         0.446457141972
    7          9.554830000000        -0.474603036643
    8          5.966610000000        -0.504495644141
    9          2.389390000000         0.656053579006
   10          1.327647751600         1.550249586311
   11         17.195195341000         0.114865410457
   12         14.230303720000        -0.191063073494
   13          3.076033915300         0.368322167033
   14          0.699738667600        -2.032380061086
   15          0.331742348900        -0.116790897152
   16          0.160934318800        -0.200478030149
   17          0.075883596200         0.070898878618
   18          0.036702167900        -0.022683223245
 P 30
    1        131.708000000000         0.000010156219
    2         21.401600000000        -0.000250658977
    3         13.382600000000         0.002953029413
    4          8.368800000000        -0.007335117078
    5          5.229450000000        -0.000029843662
    6          2.476850000000         0.010436739801
    7          1.301800000000         0.008555182896
    8        131.708000000000         0.000619809131
    9         21.401600000000        -0.015297102338
   10         13.382600000000         0.180216139317
   11          8.368800000000        -0.447644197259
   12          5.229450000000        -0.001821285463
   13          2.476850000000         0.636928621667
   14          1.301800000000         0.522101820476
   15          9.076854792000        -0.009362893178
   16          8.382236704300         0.011162569950
   17          0.706186923000         0.017989576224
   18          9.076854792000        -0.571394397115
   19          8.382236704300         0.681224254690
   20          0.706186923000         1.097859696373
   21          0.645538603700        -0.040660582737
   22          0.645538603700        -2.481415596560
   23          0.283805009200         0.000566146727
   24          0.283805009200         0.034550545585
   25          0.131605185800        -0.002915440914
   26          0.131605185800        -0.177922205406
   27          0.058958259800         0.001080110115
   28          0.058958259800         0.065916470058
   29          0.015768923100        -0.000205435565
   30          0.015768923100        -0.012537228472
 S 18
    1      12715.600000000000        -0.000008795848
    2       1913.300000000000        -0.000063255225
    3        429.956000000000        -0.000239546409
    4        100.978000000000        -0.000520639145
    5         24.470800000000         0.018793351474
    6         15.292200000000        -0.101025703470
    7          9.554830000000         0.107394643602
    8          5.966610000000         0.114158835317
    9          2.389390000000        -0.148453833754
   10          1.327647751600        -0.626553086276
   11         17.195195341000        -0.031922523650
   12         14.230303720000         0.053098800221
   13          3.076033915300        -0.102361303033
   14          0.699738667600         1.337601184434
   15          0.331742348900        -0.510976703376
   16          0.160934318800         0.287502366670
   17          0.075883596200        -2.442958292458
   18          0.036702167900         2.563261045269
 S 18
    1      12715.600000000000         0.000013198187
    2       1913.300000000000         0.000094914589
    3        429.956000000000         0.000359439854
    4        100.978000000000         0.000781220051
    5         24.470800000000        -0.028199460514
    6         15.292200000000         0.151589264951
    7          9.554830000000        -0.161145872033
    8          5.966610000000        -0.171295554885
    9          2.389390000000         0.222755266879
   10          1.327647751600         0.583716551246
   11         17.195195341000         0.074112237422
   12         14.230303720000        -0.123275682462
   13          3.076033915300         0.237644907918
   14          0.699738667600        -0.709456067698
   15          0.331742348900        -3.409827622195
   16          0.160934318800         8.814377422283
   17          0.075883596200        -8.816879706357
   18          0.036702167900         3.482948799941
 S 18
    1      12715.600000000000        -0.000037302136
    2       1913.300000000000        -0.000268257834
    3        429.956000000000        -0.001015887632
    4        100.978000000000        -0.002207968258
    5         24.470800000000         0.079700352817
    6         15.292200000000        -0.428437909077
    7          9.554830000000         0.455447821403
    8          5.966610000000         0.484133948354
    9          2.389390000000        -0.629574929388
   10          1.327647751600        -4.413154015764
   11         17.195195341000        -0.084656027241
   12         14.230303720000         0.140813850663
   13          3.076033915300        -0.271454141693
   14          0.699738667600        12.720349114672
   15          0.331742348900       -16.813612665414
   16          0.160934318800        13.979603068891
   17          0.075883596200        -7.221369078105
   18          0.036702167900         1.978709608676
 S 18
    1      12715.600000000000         0.000007686279
    2       1913.300000000000         0.000055275780
    3        429.956000000000         0.000209328391
    4        100.978000000000         0.000454962172
    5         24.470800000000        -0.016422629939
    6         15.292200000000         0.088281632190
    7          9.554830000000        -0.093847150775
    8          5.966610000000        -0.099758061212
    9          2.389390000000         0.129726854638
   10          1.327647751600        13.594968762700
   11         17.195195341000        -1.990838113913
   12         14.230303720000         3.311489919890
   13          3.076033915300        -6.383730362419
   14          0.699738667600       -15.379063830733
   15          0.331742348900        11.080692331751
   16          0.160934318800        -6.671054605925
   17          0.075883596200         2.995019374226
   18          0.036702167900        -0.800937667912
 P 30
    1        131.708000000000        -0.001150200373
    2         21.401600000000         0.028387340420
    3         13.382600000000        -0.334433069928
    4          8.368800000000         0.830708191243
    5          5.229450000000         0.003379819870
    6          2.476850000000        -1.181969578730
    7          1.301800000000        -0.968881673408
    8        131.708000000000         0.000018839321
    9         21.401600000000        -0.000464960914
   10         13.382600000000         0.005477734210
   11          8.368800000000        -0.013606305975
   12          5.229450000000        -0.000055358625
   13          2.476850000000         0.019359673964
   14          1.301800000000         0.015869472146
   15          9.076854792000        -5.419022036893
   16          8.382236704300         6.460632562851
   17          0.706186923000        10.411942990879
   18          9.076854792000         0.088759052454
   19          8.382236704300        -0.105819762427
   20          0.706186923000        -0.170538925249
   21          0.645538603700        -9.397717163885
   22          0.645538603700         0.153926753760
   23          0.283805009200         0.213025365039
   24          0.283805009200        -0.003489177461
   25          0.131605185800         0.073401433256
   26          0.131605185800        -0.001202254137
   27          0.058958259800        -0.050470242031
   28          0.058958259800         0.000826660388
   29          0.015768923100         0.011113007040
   30          0.015768923100        -0.000182021768
 P 15
    1        131.708000000000         0.000353654623
    2         21.401600000000        -0.008728317624
    3         13.382600000000         0.102828867204
    4          8.368800000000        -0.255419663795
    5          5.229450000000        -0.001039200605
    6          2.476850000000         0.363422770592
    7          1.301800000000         0.297904166454
    8          9.076854792000        -0.396695544800
    9          8.382236704300         0.472945881530
   10          0.706186923000         0.762198671470
   11          0.645538603700        -1.992777088993
   12          0.283805009200         0.282838740458
   13          0.131605185800         0.886821575393
   14          0.058958259800         0.238688515475
   15          0.015768923100        -0.144559273204
 P 30
    1        131.708000000000         0.000001393021
    2         21.401600000000        -0.000034380246
    3         13.382600000000         0.000405035877
    4          8.368800000000        -0.001006080592
    5          5.229450000000        -0.000004093340
    6          2.476850000000         0.001431497445
    7          1.301800000000         0.001173424143
    8        131.708000000000         0.000085012740
    9         21.401600000000        -0.002098143629
   10         13.382600000000         0.024718364048
   11          8.368800000000        -0.061398675355
   12          5.229450000000        -0.000249806689
   13          2.476850000000         0.087360841278
   14          1.301800000000         0.071611249233
   15          9.076854792000        -0.001605505169
   16          8.382236704300         0.001914105332
   17          0.706186923000         0.003084768465
   18          9.076854792000        -0.097980113559
   19          8.382236704300         0.116813238230
   20          0.706186923000         0.188255989673
   21          0.645538603700        -0.008298613583
   22          0.645538603700        -0.506444399478
   23          0.283805009200         0.001609206334
   24          0.283805009200         0.098205986753
   25          0.131605185800         0.004346684750
   26          0.131605185800         0.265267701183
   27          0.058958259800         0.003292149781
   28          0.058958259800         0.200911971913
   29          0.015768923100        -0.018367220741
   30          0.015768923100        -1.120907243775
 P 30
    1        131.708000000000         0.000185184916
    2         21.401600000000        -0.004570427363
    3         13.382600000000         0.053844496571
    4          8.368800000000        -0.133745937160
    5          5.229450000000        -0.000544158804
    6          2.476850000000         0.190299831720
    7          1.301800000000         0.155992186875
    8        131.708000000000        -0.000003034448
    9         21.401600000000         0.000074891224
   10         13.382600000000        -0.000882298289
   11          8.368800000000         0.002191566809
   12          5.229450000000         0.000008916610
   13          2.476850000000        -0.003118261412
   14          1.301800000000        -0.002556094835
   15          9.076854792000        -0.209349258391
   16          8.382236704300         0.249589063591
   17          0.706186923000         0.402237254011
   18          9.076854792000         0.003430406155
   19          8.382236704300        -0.004089777373
   20          0.706186923000        -0.006591077335
   21          0.645538603700        -0.979230598743
   22          0.645538603700         0.016045715659
   23          0.283805009200        -0.502892986867
   24          0.283805009200         0.008240426600
   25          0.131605185800         2.665153087064
   26          0.131605185800        -0.043671315701
   27          0.058958259800        -2.725224627852
   28          0.058958259800         0.044655650610
   29          0.015768923100         0.896082573235
   30          0.015768923100        -0.014683248456
 P 30
    1        131.708000000000         0.000010515926
    2         21.401600000000        -0.000259536667
    3         13.382600000000         0.003057618043
    4          8.368800000000        -0.007594907869
    5          5.229450000000        -0.000030900647
    6          2.476850000000         0.010806382011
    7          1.301800000000         0.008858185248
    8        131.708000000000         0.000641756421
    9         21.401600000000        -0.015838768979
   10         13.382600000000         0.186597548600
   11          8.368800000000        -0.463495168469
   12          5.229450000000        -0.001885776734
   13          2.476850000000         0.659482107910
   14          1.301800000000         0.540589317858
   15          9.076854792000        -0.013563092613
   16          8.382236704300         0.016170105452
   17          0.706186923000         0.026059710793
   18          9.076854792000        -0.827716149294
   19          8.382236704300         0.986814571065
   20          0.706186923000         1.590348461477
   21          0.645538603700        -0.086491934336
   22          0.645538603700        -5.278351544055
   23          0.283805009200         0.095616691233
   24          0.283805009200         5.835208955400
   25          0.131605185800        -0.078682526223
   26          0.131605185800        -4.801766048640
   27          0.058958259800         0.032747843002
   28          0.058958259800         1.998505745117
   29          0.015768923100        -0.005923761378
   30          0.015768923100        -0.361509951843
 P 15
    1        131.708000000000        -0.001150414927
    2         21.401600000000         0.028392635694
    3         13.382600000000        -0.334495453885
    4          8.368800000000         0.830863148599
    5          5.229450000000         0.003380450329
    6          2.476850000000        -1.182190059138
    7          1.301800000000        -0.969062405155
    8          9.076854792000        -5.419693133505
    9          8.382236704300         6.461432653457
   10          0.706186923000        10.413232415358
   11          0.645538603700        -9.398666647053
   12          0.283805009200         0.212816716935
   13          0.131605185800         0.073584772423
   14          0.058958259800        -0.050550190512
   15          0.015768923100         0.011130250702
 end
  // -----------------------------------------------
  // The basis set
  // -----------------------------------------------
  BAS[ATNO] = new BFNGauss[NSH];
  // Basis function   1 L = s
  InitBFNGauss(BAS[ATNO][  0]);
  BAS[ATNO][  0].l  = 0;
  BAS[ATNO][  0].ng = 18;
  BAS[ATNO][  0].a[  0] =     12715.600000000000;     BAS[ATNO][  0].d[  0] =         0.000051091925;
  BAS[ATNO][  0].a[  1] =      1913.300000000000;     BAS[ATNO][  0].d[  1] =         0.000367426920;
  BAS[ATNO][  0].a[  2] =       429.956000000000;     BAS[ATNO][  0].d[  2] =         0.001391439188;
  BAS[ATNO][  0].a[  3] =       100.978000000000;     BAS[ATNO][  0].d[  3] =         0.003024206088;
  BAS[ATNO][  0].a[  4] =        24.470800000000;     BAS[ATNO][  0].d[  4] =        -0.109163839315;
  BAS[ATNO][  0].a[  5] =        15.292200000000;     BAS[ATNO][  0].d[  5] =         0.586822083092;
  BAS[ATNO][  0].a[  6] =         9.554830000000;     BAS[ATNO][  0].d[  6] =        -0.623816972385;
  BAS[ATNO][  0].a[  7] =         5.966610000000;     BAS[ATNO][  0].d[  7] =        -0.663107736384;
  BAS[ATNO][  0].a[  8] =         2.389390000000;     BAS[ATNO][  0].d[  8] =         0.862315083934;
  BAS[ATNO][  0].a[  9] =         1.327647751600;     BAS[ATNO][  0].d[  9] =         0.743601199367;
  BAS[ATNO][  0].a[ 10] =        17.195195341000;     BAS[ATNO][  0].d[ 10] =         0.026784877020;
  BAS[ATNO][  0].a[ 11] =        14.230303720000;     BAS[ATNO][  0].d[ 11] =        -0.044553019975;
  BAS[ATNO][  0].a[ 12] =         3.076033915300;     BAS[ATNO][  0].d[ 12] =         0.085887160532;
  BAS[ATNO][  0].a[ 13] =         0.699738667600;     BAS[ATNO][  0].d[ 13] =        -0.179521893238;
  BAS[ATNO][  0].a[ 14] =         0.331742348900;     BAS[ATNO][  0].d[ 14] =         0.126056193173;
  BAS[ATNO][  0].a[ 15] =         0.160934318800;     BAS[ATNO][  0].d[ 15] =        -0.074635932519;
  BAS[ATNO][  0].a[ 16] =         0.075883596200;     BAS[ATNO][  0].d[ 16] =         0.032858537252;
  BAS[ATNO][  0].a[ 17] =         0.036702167900;     BAS[ATNO][  0].d[ 17] =        -0.008996137146;

FINAL SINGLE POINT ENERGY      -253.359654325647

DIPOLE MOMENT
-------------
                                X             Y             Z
Electronic contribution:      0.00000       0.00000      -0.00000
Nuclear contribution   :      0.00000       0.00000       0.00000
                        -----------------------------------------
Total Dipole Moment    :      0.00000       0.00000      -0.00000
                        -----------------------------------------
Magnitude (a.u.)       :      0.00000
Magnitude (Debye)      :      0.00000

Rotational constants in cm-1:     0.000000     0.000000     0.000000
Rotational constants in MHz :     0.000000     0.000000     0.000000

                             ****ORCA TERMINATED NORMALLY****
TOTAL RUN TIME: 0 days 0 hours 0 minutes 1 seconds 60 msec
