                         Program Version 4.2.0 -  RELEASE  -
|  1> #
|  2> # 85_At CCSD(T)/Def2-QZVPPD
|  3> #
|  4> ! CCSD(T) Def2-QZVPPD tightscf slowconv
|  5>
|  6> *xyz 0 1
|  7>  Rn 0.0 0.0 0.0
|  8> *
|  9>
| 10> %maxcore 5000
| 11>
| 12> %pal
| 13> nprocs 24
| 14> end
| 15>
| 16>
| 17>                          ****END OF INPUT****

CARTESIAN COORDINATES (ANGSTROEM)
---------------------------------
  Rn     0.000000    0.000000    0.000000

 Total Charge           Charge          ....    0
 Multiplicity           Mult            ....    1
 Number of Electrons    NEL             ....   26
 Basis Dimension        Dim             ....   91

ORBITAL ENERGIES
----------------

  NO   OCC          E(Eh)            E(eV)
   0   2.0000      -8.326239      -226.5685
   1   2.0000      -5.537254      -150.6763
   2   2.0000      -5.537254      -150.6763
   3   2.0000      -5.537254      -150.6763
   4   2.0000      -2.087485       -56.8033
   5   2.0000      -2.087485       -56.8033
   6   2.0000      -2.087485       -56.8033
   7   2.0000      -2.087485       -56.8033
   8   2.0000      -2.087485       -56.8033
   9   2.0000      -1.070703       -29.1353
  10   2.0000      -0.427443       -11.6313
  11   2.0000      -0.427443       -11.6313
  12   2.0000      -0.427443       -11.6313
  13   0.0000       0.040158         1.0928
  14   0.0000       0.040158         1.0928
  15   0.0000       0.040158         1.0928
  16   0.0000       0.053233         1.4486
  17   0.0000       0.158383         4.3098

E(0)                                       ...   -287.543490036
E(0)                                       ...   -287.543490036
E(CORR)                                    ...     -0.576842317
E(TOT)                                     ...   -288.120332353
E(CCSD(T))                                 ...   -288.133600044

MULLIKEN ATOMIC CHARGES
-----------------------
   0 Rn:   -0.000000
Sum of atomic charges:   -0.0000000

LOEWDIN ATOMIC CHARGES
----------------------
   0 Rn:   -0.000000

FINAL SINGLE POINT ENERGY      -288.133600044173

DIPOLE MOMENT
-------------
                                X             Y             Z
Electronic contribution:     -0.00000      -0.00000       0.00000
Nuclear contribution   :      0.00000       0.00000       0.00000
                        -----------------------------------------
Total Dipole Moment    :     -0.00000      -0.00000       0.00000
                        -----------------------------------------
Magnitude (a.u.)       :      0.00000
Magnitude (Debye)      :      0.00000

Rotational constants in cm-1:     0.000000     0.000000     0.000000
Rotational constants in MHz :     0.000000     0.000000     0.000000

                             ****ORCA TERMINATED NORMALLY****
TOTAL RUN TIME: 0 days 0 hours 0 minutes 18 seconds 11 msec
