                         Program Version 4.2.0 -  RELEASE  -
|  1> #
|  2> # 05_B CCSD(T)/Def2-QZVP
|  3> #
|  4> ! CCSD(T) Def2-QZVP tightscf
|  5>
|  6> *xyz 0 2
|  7>  B 0.0 0.0 0.0
|  8> *
|  9>
| 10> %maxcore 5000
| 11>
| 12> %pal
| 13> nprocs 3
| 14> end
| 15>
| 16>
| 17>                          ****END OF INPUT****

CARTESIAN COORDINATES (ANGSTROEM)
---------------------------------
  B      0.000000    0.000000    0.000000

 Total Charge           Charge          ....    0
 Multiplicity           Mult            ....    2
 Number of Electrons    NEL             ....    5
 Basis Dimension        Dim             ....   57

ORBITAL ENERGIES
----------------
                 SPIN UP ORBITALS
  NO   OCC          E(Eh)            E(eV)
   0   1.0000      -7.701126      -209.5583
   1   1.0000      -0.545156       -14.8345
   2   1.0000      -0.318755        -8.6738
   3   0.0000       0.036248         0.9864
   4   0.0000       0.036248         0.9864
   5   0.0000       0.145583         3.9615
   6   0.0000       0.184807         5.0289
   7   0.0000       0.184807         5.0289

                 SPIN DOWN ORBITALS
  NO   OCC          E(Eh)            E(eV)
   0   1.0000      -7.686110      -209.1497
   1   1.0000      -0.446137       -12.1400
   2   0.0000       0.044273         1.2047
   3   0.0000       0.044273         1.2047
   4   0.0000       0.075444         2.0529
   5   0.0000       0.192574         5.2402
   6   0.0000       0.192574         5.2402

E(0)                                       ...    -24.533088925
E(0)                                       ...    -24.533088925
E(CORR)                                    ...     -0.066202550
E(TOT)                                     ...    -24.599291475
E(CCSD(T))                                 ...    -24.600737706

MULLIKEN ATOMIC CHARGES AND SPIN DENSITIES
------------------------------------------
   0 B :    0.000000    1.000000
Sum of atomic charges       :    0.0000000

LOEWDIN ATOMIC CHARGES AND SPIN DENSITIES
-----------------------------------------
   0 B :    0.000000    1.000000

FINAL SINGLE POINT ENERGY       -24.600737705834

DIPOLE MOMENT
-------------
                                X             Y             Z
Electronic contribution:     -0.00000       0.00000       0.00000
Nuclear contribution   :      0.00000       0.00000       0.00000
                        -----------------------------------------
Total Dipole Moment    :     -0.00000       0.00000       0.00000
                        -----------------------------------------
Magnitude (a.u.)       :      0.00000
Magnitude (Debye)      :      0.00000

Rotational constants in cm-1:     0.000000     0.000000     0.000000
Rotational constants in MHz :     0.000000     0.000000     0.000000

                             ****ORCA TERMINATED NORMALLY****
TOTAL RUN TIME: 0 days 0 hours 0 minutes 14 seconds 965 msec
