                         Program Version 4.2.0 -  RELEASE  -
|  1> #
|  2> # 06_C CCSD(T)/Def2-QZVP
|  3> #
|  4> ! CCSD(T) Def2-QZVP tightscf
|  5>
|  6> *xyz 0 3
|  7>  C 0.0 0.0 0.0
|  8> *
|  9>
| 10> %maxcore 5000
| 11>
| 12> %pal
| 13> nprocs 6
| 14> end
| 15>
| 16>
| 17>                          ****END OF INPUT****

CARTESIAN COORDINATES (ANGSTROEM)
---------------------------------
  C      0.000000    0.000000    0.000000

 Total Charge           Charge          ....    0
 Multiplicity           Mult            ....    3
 Number of Electrons    NEL             ....    6
 Basis Dimension        Dim             ....   57

ORBITAL ENERGIES
----------------
                 SPIN UP ORBITALS
  NO   OCC          E(Eh)            E(eV)
   0   1.0000     -11.345296      -308.7212
   1   1.0000      -0.829049       -22.5596
   2   1.0000      -0.438929       -11.9439
   3   1.0000      -0.438929       -11.9439
   4   0.0000       0.024972         0.6795
   5   0.0000       0.212300         5.7770
   6   0.0000       0.212300         5.7770
   7   0.0000       0.255191         6.9441
   8   0.0000       0.290012         7.8916

                 SPIN DOWN ORBITALS
  NO   OCC          E(Eh)            E(eV)
   0   1.0000     -11.300297      -307.4967
   1   1.0000      -0.583447       -15.8764
   2   0.0000       0.052294         1.4230
   3   0.0000       0.094210         2.5636
   4   0.0000       0.094210         2.5636
   5   0.0000       0.274295         7.4640
   6   0.0000       0.311945         8.4885

E(0)                                       ...    -37.693627222
E(0)                                       ...    -37.693627222
E(CORR)                                    ...     -0.090529508
E(TOT)                                     ...    -37.784156730
E(CCSD(T))                                 ...    -37.786508587

MULLIKEN ATOMIC CHARGES AND SPIN DENSITIES
------------------------------------------
   0 C :    0.000000    2.000000
Sum of atomic charges       :    0.0000000

LOEWDIN ATOMIC CHARGES AND SPIN DENSITIES
-----------------------------------------
   0 C :   -0.000000    2.000000

FINAL SINGLE POINT ENERGY       -37.786508586530

DIPOLE MOMENT
-------------
                                X             Y             Z
Electronic contribution:      0.00000       0.00000       0.00000
Nuclear contribution   :      0.00000       0.00000       0.00000
                        -----------------------------------------
Total Dipole Moment    :      0.00000       0.00000       0.00000
                        -----------------------------------------
Magnitude (a.u.)       :      0.00000
Magnitude (Debye)      :      0.00000

Rotational constants in cm-1:     0.000000     0.000000     0.000000
Rotational constants in MHz :     0.000000     0.000000     0.000000

                             ****ORCA TERMINATED NORMALLY****
TOTAL RUN TIME: 0 days 0 hours 0 minutes 8 seconds 561 msec
