                         Program Version 4.2.0 -  RELEASE  -
|  1> #
|  2> # 07_N CCSD(T)/Def2-QZVP
|  3> #
|  4> ! CCSD(T) Def2-QZVP tightscf
|  5>
|  6> *xyz 0 4
|  7>  N 0.0 0.0 0.0
|  8> *
|  9>
| 10> %maxcore 5000
| 11>
| 12> %pal
| 13> nprocs 10
| 14> end
| 15>
| 16>
| 17>                          ****END OF INPUT****

CARTESIAN COORDINATES (ANGSTROEM)
---------------------------------
  N      0.000000    0.000000    0.000000

 Total Charge           Charge          ....    0
 Multiplicity           Mult            ....    4
 Number of Electrons    NEL             ....    7
 Basis Dimension        Dim             ....   57

ORBITAL ENERGIES
----------------
                 SPIN UP ORBITALS
  NO   OCC          E(Eh)            E(eV)
   0   1.0000     -15.670335      -426.4115
   1   1.0000      -1.162667       -31.6378
   2   1.0000      -0.570659       -15.5284
   3   1.0000      -0.570659       -15.5284
   4   1.0000      -0.570659       -15.5284
   5   0.0000       0.291019         7.9190
   6   0.0000       0.291019         7.9190
   7   0.0000       0.291019         7.9190
   8   0.0000       0.390364        10.6223
   9   0.0000       0.879257        23.9258

                 SPIN DOWN ORBITALS
  NO   OCC          E(Eh)            E(eV)
   0   1.0000     -15.580686      -423.9720
   1   1.0000      -0.725889       -19.7524
   2   0.0000       0.111733         3.0404
   3   0.0000       0.111733         3.0404
   4   0.0000       0.111733         3.0404
   5   0.0000       0.411627        11.2009
   6   0.0000       0.411627        11.2009

E(0)                                       ...    -54.404385305
E(0)                                       ...    -54.404385305
E(CORR)                                    ...     -0.117827074
E(TOT)                                     ...    -54.522212378
E(CCSD(T))                                 ...    -54.525016782

MULLIKEN ATOMIC CHARGES AND SPIN DENSITIES
------------------------------------------
   0 N :   -0.000000    3.000000
Sum of atomic charges       :   -0.0000000

LOEWDIN ATOMIC CHARGES AND SPIN DENSITIES
-----------------------------------------
   0 N :   -0.000000    3.000000

FINAL SINGLE POINT ENERGY       -54.525016781520

DIPOLE MOMENT
-------------
                                X             Y             Z
Electronic contribution:      0.00000      -0.00000       0.00000
Nuclear contribution   :      0.00000       0.00000       0.00000
                        -----------------------------------------
Total Dipole Moment    :      0.00000      -0.00000       0.00000
                        -----------------------------------------
Magnitude (a.u.)       :      0.00000
Magnitude (Debye)      :      0.00000

Rotational constants in cm-1:     0.000000     0.000000     0.000000
Rotational constants in MHz :     0.000000     0.000000     0.000000

                             ****ORCA TERMINATED NORMALLY****
TOTAL RUN TIME: 0 days 0 hours 0 minutes 18 seconds 574 msec
