                         Program Version 4.2.0 -  RELEASE  -
|  1> #
|  2> # 08_O CCSD(T)/Def2-QZVP
|  3> #
|  4> ! CCSD(T) Def2-QZVP tightscf
|  5>
|  6> *xyz 0 3
|  7>  O 0.0 0.0 0.0
|  8> *
|  9>
| 10> %maxcore 5000
| 11>
| 12> %pal
| 13> nprocs 15
| 14> end
| 15>
| 16>
| 17>                          ****END OF INPUT****

CARTESIAN COORDINATES (ANGSTROEM)
---------------------------------
  O      0.000000    0.000000    0.000000

 Total Charge           Charge          ....    0
 Multiplicity           Mult            ....    3
 Number of Electrons    NEL             ....    8
 Basis Dimension        Dim             ....   57

ORBITAL ENERGIES
----------------
                 SPIN UP ORBITALS
  NO   OCC          E(Eh)            E(eV)
   0   1.0000     -20.706988      -563.4658
   1   1.0000      -1.417757       -38.5791
   2   1.0000      -0.710579       -19.3358
   3   1.0000      -0.710579       -19.3358
   4   1.0000      -0.611116       -16.6293
   5   0.0000       0.338456         9.2099
   6   0.0000       0.338456         9.2099
   7   0.0000       0.360189         9.8012
   8   0.0000       0.519201        14.1282
   9   0.0000       1.152777        31.3687

                 SPIN DOWN ORBITALS
  NO   OCC          E(Eh)            E(eV)
   0   1.0000     -20.628607      -561.3329
   1   1.0000      -1.075419       -29.2636
   2   1.0000      -0.521502       -14.1908
   3   0.0000       0.086802         2.3620
   4   0.0000       0.086802         2.3620
   5   0.0000       0.372577        10.1383
   6   0.0000       0.446518        12.1504
   7   0.0000       0.446518        12.1504

E(0)                                       ...    -74.818629325
E(0)                                       ...    -74.818629325
E(CORR)                                    ...     -0.171742593
E(TOT)                                     ...    -74.990371918
E(CCSD(T))                                 ...    -74.994067468

MULLIKEN ATOMIC CHARGES AND SPIN DENSITIES
------------------------------------------
   0 O :   -0.000000    2.000000
Sum of atomic charges       :   -0.0000000

LOEWDIN ATOMIC CHARGES AND SPIN DENSITIES
-----------------------------------------
   0 O :   -0.000000    2.000000

FINAL SINGLE POINT ENERGY       -74.994067467794

DIPOLE MOMENT
-------------
                                X             Y             Z
Electronic contribution:      0.00000       0.00000      -0.00000
Nuclear contribution   :      0.00000       0.00000       0.00000
                        -----------------------------------------
Total Dipole Moment    :      0.00000       0.00000      -0.00000
                        -----------------------------------------
Magnitude (a.u.)       :      0.00000
Magnitude (Debye)      :      0.00000

Rotational constants in cm-1:     0.000000     0.000000     0.000000
Rotational constants in MHz :     0.000000     0.000000     0.000000

                             ****ORCA TERMINATED NORMALLY****
TOTAL RUN TIME: 0 days 0 hours 0 minutes 9 seconds 904 msec
