                         Program Version 4.2.0 -  RELEASE  -
|  1> #
|  2> # 10_Ne CCSD(T)/Def2-QZVP
|  3> #
|  4> ! CCSD(T) Def2-QZVP tightscf
|  5>
|  6> *xyz 0 1
|  7>  Ne 0.0 0.0 0.0
|  8> *
|  9>
| 10> %maxcore 5000
| 11>
| 12> %pal
| 13> nprocs 10
| 14> end
| 15>
| 16>
| 17>                          ****END OF INPUT****

CARTESIAN COORDINATES (ANGSTROEM)
---------------------------------
  Ne     0.000000    0.000000    0.000000

 Total Charge           Charge          ....    0
 Multiplicity           Mult            ....    1
 Number of Electrons    NEL             ....   10
 Basis Dimension        Dim             ....   57

ORBITAL ENERGIES
----------------

  NO   OCC          E(Eh)            E(eV)
   0   2.0000     -32.772339      -891.7807
   1   2.0000      -1.930320       -52.5267
   2   2.0000      -0.850347       -23.1391
   3   2.0000      -0.850347       -23.1391
   4   2.0000      -0.850347       -23.1391
   5   0.0000       0.436094        11.8667
   6   0.0000       0.436094        11.8667
   7   0.0000       0.436094        11.8667
   8   0.0000       0.797931        21.7128
   9   0.0000       1.870553        50.9003

E(0)                                       ...   -128.546849102
E(0)                                       ...   -128.546849102
E(CORR)                                    ...     -0.290971646
E(TOT)                                     ...   -128.837820748
E(CCSD(T))                                 ...   -128.843186229

MULLIKEN ATOMIC CHARGES
-----------------------
   0 Ne:   -0.000000
Sum of atomic charges:   -0.0000000

LOEWDIN ATOMIC CHARGES
----------------------
   0 Ne:   -0.000000

FINAL SINGLE POINT ENERGY      -128.843186228979

DIPOLE MOMENT
-------------
                                X             Y             Z
Electronic contribution:     -0.00000      -0.00000       0.00000
Nuclear contribution   :      0.00000       0.00000       0.00000
                        -----------------------------------------
Total Dipole Moment    :     -0.00000      -0.00000       0.00000
                        -----------------------------------------
Magnitude (a.u.)       :      0.00000
Magnitude (Debye)      :      0.00000

Rotational constants in cm-1:     0.000000     0.000000     0.000000
Rotational constants in MHz :     0.000000     0.000000     0.000000

                             ****ORCA TERMINATED NORMALLY****
TOTAL RUN TIME: 0 days 0 hours 0 minutes 5 seconds 175 msec
