                         Program Version 4.2.0 -  RELEASE  -
|  1> #
|  2> # 13_Al CCSD(T)/Def2-QZVP
|  3> #
|  4> ! CCSD(T) Def2-QZVP tightscf
|  5>
|  6> *xyz 0 2
|  7>  Al 0.0 0.0 0.0
|  8> *
|  9>
| 10> %maxcore 5000
| 11>
| 12> %pal
| 13> nprocs 3
| 14> end
| 15>
| 16>
| 17>                          ****END OF INPUT****

CARTESIAN COORDINATES (ANGSTROEM)
---------------------------------
  Al     0.000000    0.000000    0.000000

 Total Charge           Charge          ....    0
 Multiplicity           Mult            ....    2
 Number of Electrons    NEL             ....   13
 Basis Dimension        Dim             ....   70

ORBITAL ENERGIES
----------------
                 SPIN UP ORBITALS
  NO   OCC          E(Eh)            E(eV)
   0   1.0000     -58.500863     -1591.8894
   1   1.0000      -4.910652      -133.6256
   2   1.0000      -3.225124       -87.7601
   3   1.0000      -3.217818       -87.5613
   4   1.0000      -3.217818       -87.5613
   5   1.0000      -0.425491       -11.5782
   6   1.0000      -0.218488        -5.9454
   7   0.0000       0.016947         0.4612
   8   0.0000       0.016947         0.4612
   9   0.0000       0.129665         3.5284
  10   0.0000       0.132547         3.6068
  11   0.0000       0.155141         4.2216

                 SPIN DOWN ORBITALS
  NO   OCC          E(Eh)            E(eV)
   0   1.0000     -58.497797     -1591.8060
   1   1.0000      -4.907217      -133.5322
   2   1.0000      -3.216252       -87.5187
   3   1.0000      -3.216252       -87.5187
   4   1.0000      -3.206899       -87.2642
   5   1.0000      -0.363315        -9.8863
   6   0.0000       0.023232         0.6322
   7   0.0000       0.023232         0.6322
   8   0.0000       0.053465         1.4548
   9   0.0000       0.139497         3.7959
  10   0.0000       0.158212         4.3052

E(0)                                       ...   -241.880670720
E(0)                                       ...   -241.880670720
E(CORR)                                    ...     -0.052260836
E(TOT)                                     ...   -241.932931556
E(CCSD(T))                                 ...   -241.934219686

MULLIKEN ATOMIC CHARGES AND SPIN DENSITIES
------------------------------------------
   0 Al:   -0.000000    1.000000
Sum of atomic charges       :   -0.0000000

LOEWDIN ATOMIC CHARGES AND SPIN DENSITIES
-----------------------------------------
   0 Al:   -0.000000    1.000000

FINAL SINGLE POINT ENERGY      -241.934219686320

DIPOLE MOMENT
-------------
                                X             Y             Z
Electronic contribution:      0.00000      -0.00000      -0.00000
Nuclear contribution   :      0.00000       0.00000       0.00000
                        -----------------------------------------
Total Dipole Moment    :      0.00000      -0.00000      -0.00000
                        -----------------------------------------
Magnitude (a.u.)       :      0.00000
Magnitude (Debye)      :      0.00000

Rotational constants in cm-1:     0.000000     0.000000     0.000000
Rotational constants in MHz :     0.000000     0.000000     0.000000

                             ****ORCA TERMINATED NORMALLY****
TOTAL RUN TIME: 0 days 0 hours 0 minutes 14 seconds 121 msec
