                         Program Version 4.2.0 -  RELEASE  -
|  1> #
|  2> # 14_Si CCSD(T)/Def2-QZVP
|  3> #
|  4> ! CCSD(T) Def2-QZVP tightscf
|  5>
|  6> *xyz 0 3
|  7>  Si 0.0 0.0 0.0
|  8> *
|  9>
| 10> %maxcore 5000
| 11>
| 12> %pal
| 13> nprocs 6
| 14> end
| 15>
| 16>
| 17>                          ****END OF INPUT****

CARTESIAN COORDINATES (ANGSTROEM)
---------------------------------
  Si     0.000000    0.000000    0.000000

 Total Charge           Charge          ....    0
 Multiplicity           Mult            ....    3
 Number of Electrons    NEL             ....   14
 Basis Dimension        Dim             ....   70

ORBITAL ENERGIES
----------------
                 SPIN UP ORBITALS
  NO   OCC          E(Eh)            E(eV)
   0   1.0000     -68.816180     -1872.5835
   1   1.0000      -6.160559      -167.6373
   2   1.0000      -4.268871      -116.1619
   3   1.0000      -4.268871      -116.1619
   4   1.0000      -4.258088      -115.8685
   5   1.0000      -0.619804       -16.8657
   6   1.0000      -0.301353        -8.2002
   7   1.0000      -0.301353        -8.2002
   8   0.0000      -0.006534        -0.1778
   9   0.0000       0.177033         4.8173
  10   0.0000       0.179129         4.8743
  11   0.0000       0.179129         4.8743
  12   0.0000       0.200938         5.4678

                 SPIN DOWN ORBITALS
  NO   OCC          E(Eh)            E(eV)
   0   1.0000     -68.805927     -1872.3045
   1   1.0000      -6.149630      -167.3399
   2   1.0000      -4.253004      -115.7301
   3   1.0000      -4.239750      -115.3695
   4   1.0000      -4.239750      -115.3695
   5   1.0000      -0.462717       -12.5912
   6   0.0000       0.011735         0.3193
   7   0.0000       0.051807         1.4097
   8   0.0000       0.051807         1.4097
   9   0.0000       0.200976         5.4688
  10   0.0000       0.208962         5.6862

E(0)                                       ...   -288.858728988
E(0)                                       ...   -288.858728988
E(CORR)                                    ...     -0.076794052
E(TOT)                                     ...   -288.935523039
E(CCSD(T))                                 ...   -288.938388574

MULLIKEN ATOMIC CHARGES AND SPIN DENSITIES
------------------------------------------
   0 Si:   -0.000000    2.000000
Sum of atomic charges       :   -0.0000000

LOEWDIN ATOMIC CHARGES AND SPIN DENSITIES
-----------------------------------------
   0 Si:   -0.000000    2.000000

FINAL SINGLE POINT ENERGY      -288.938388573827

DIPOLE MOMENT
-------------
                                X             Y             Z
Electronic contribution:     -0.00000       0.00000       0.00000
Nuclear contribution   :      0.00000       0.00000       0.00000
                        -----------------------------------------
Total Dipole Moment    :     -0.00000       0.00000       0.00000
                        -----------------------------------------
Magnitude (a.u.)       :      0.00000
Magnitude (Debye)      :      0.00000

Rotational constants in cm-1:     0.000000     0.000000     0.000000
Rotational constants in MHz :     0.000000     0.000000     0.000000

                             ****ORCA TERMINATED NORMALLY****
TOTAL RUN TIME: 0 days 0 hours 0 minutes 12 seconds 106 msec
