                         Program Version 4.2.0 -  RELEASE  -
|  1> #
|  2> # 15_P CCSD(T)/Def2-QZVP
|  3> #
|  4> ! CCSD(T) Def2-QZVP tightscf
|  5>
|  6> *xyz 0 4
|  7>  P 0.0 0.0 0.0
|  8> *
|  9>
| 10> %maxcore 5000
| 11>
| 12> %pal
| 13> nprocs 10
| 14> end
| 15>
| 16>
| 17>                          ****END OF INPUT****

CARTESIAN COORDINATES (ANGSTROEM)
---------------------------------
  P      0.000000    0.000000    0.000000

 Total Charge           Charge          ....    0
 Multiplicity           Mult            ....    4
 Number of Electrons    NEL             ....   15
 Basis Dimension        Dim             ....   70

ORBITAL ENERGIES
----------------
                 SPIN UP ORBITALS
  NO   OCC          E(Eh)            E(eV)
   0   1.0000     -79.980072     -2176.3684
   1   1.0000      -7.521597      -204.6731
   2   1.0000      -5.421283      -147.5206
   3   1.0000      -5.421283      -147.5206
   4   1.0000      -5.421283      -147.5206
   5   1.0000      -0.836126       -22.7521
   6   1.0000      -0.392022       -10.6675
   7   1.0000      -0.392022       -10.6675
   8   1.0000      -0.392022       -10.6675
   9   0.0000       0.228409         6.2153
  10   0.0000       0.229192         6.2366
  11   0.0000       0.229192         6.2366
  12   0.0000       0.229192         6.2366
  13   0.0000       0.298014         8.1094

                 SPIN DOWN ORBITALS
  NO   OCC          E(Eh)            E(eV)
   0   1.0000     -79.958465     -2175.7805
   1   1.0000      -7.499731      -204.0780
   2   1.0000      -5.379839      -146.3929
   3   1.0000      -5.379839      -146.3929
   4   1.0000      -5.379839      -146.3929
   5   1.0000      -0.556147       -15.1335
   6   0.0000       0.044152         1.2014
   7   0.0000       0.044152         1.2014
   8   0.0000       0.044152         1.2014
   9   0.0000       0.270268         7.3544
  10   0.0000       0.295814         8.0495

E(0)                                       ...   -340.719044379
E(0)                                       ...   -340.719044379
E(CORR)                                    ...     -0.105394906
E(TOT)                                     ...   -340.824439285
E(CCSD(T))                                 ...   -340.829047242

MULLIKEN ATOMIC CHARGES AND SPIN DENSITIES
------------------------------------------
   0 P :   -0.000000    3.000000
Sum of atomic charges       :   -0.0000000

LOEWDIN ATOMIC CHARGES AND SPIN DENSITIES
-----------------------------------------
   0 P :   -0.000000    3.000000

FINAL SINGLE POINT ENERGY      -340.829047241763

DIPOLE MOMENT
-------------
                                X             Y             Z
Electronic contribution:     -0.00000      -0.00000      -0.00000
Nuclear contribution   :      0.00000       0.00000       0.00000
                        -----------------------------------------
Total Dipole Moment    :     -0.00000      -0.00000      -0.00000
                        -----------------------------------------
Magnitude (a.u.)       :      0.00000
Magnitude (Debye)      :      0.00000

Rotational constants in cm-1:     0.000000     0.000000     0.000000
Rotational constants in MHz :     0.000000     0.000000     0.000000

                             ****ORCA TERMINATED NORMALLY****
TOTAL RUN TIME: 0 days 0 hours 0 minutes 10 seconds 852 msec
