                         Program Version 4.2.0 -  RELEASE  -
|  1> #
|  2> # 16_S CCSD(T)/Def2-QZVP
|  3> #
|  4> ! CCSD(T) Def2-QZVP tightscf
|  5>
|  6> *xyz 0 3
|  7>  S 0.0 0.0 0.0
|  8> *
|  9>
| 10> %maxcore 5000
| 11>
| 12> %pal
| 13> nprocs 15
| 14> end
| 15>
| 16>
| 17>                          ****END OF INPUT****

CARTESIAN COORDINATES (ANGSTROEM)
---------------------------------
  S      0.000000    0.000000    0.000000

 Total Charge           Charge          ....    0
 Multiplicity           Mult            ....    3
 Number of Electrons    NEL             ....   16
 Basis Dimension        Dim             ....   70

ORBITAL ENERGIES
----------------
                 SPIN UP ORBITALS
  NO   OCC          E(Eh)            E(eV)
   0   1.0000     -92.012729     -2503.7936
   1   1.0000      -9.012406      -245.2400
   2   1.0000      -6.705552      -182.4673
   3   1.0000      -6.705552      -182.4673
   4   1.0000      -6.685059      -181.9097
   5   1.0000      -0.989561       -26.9273
   6   1.0000      -0.486746       -13.2450
   7   1.0000      -0.486746       -13.2450
   8   1.0000      -0.415295       -11.3008
   9   0.0000       0.237359         6.4589
  10   0.0000       0.237359         6.4589
  11   0.0000       0.257812         7.0154
  12   0.0000       0.290496         7.9048
  13   0.0000       0.350741         9.5441

                 SPIN DOWN ORBITALS
  NO   OCC          E(Eh)            E(eV)
   0   1.0000     -91.993812     -2503.2789
   1   1.0000      -8.993823      -244.7344
   2   1.0000      -6.674986      -181.6356
   3   1.0000      -6.658794      -181.1950
   4   1.0000      -6.658794      -181.1950
   5   1.0000      -0.773737       -21.0545
   6   1.0000      -0.379346       -10.3225
   7   0.0000       0.007528         0.2048
   8   0.0000       0.007528         0.2048
   9   0.0000       0.263969         7.1830
  10   0.0000       0.294000         8.0001
  11   0.0000       0.294000         8.0001

E(0)                                       ...   -397.512995844
E(0)                                       ...   -397.512995844
E(CORR)                                    ...     -0.149836566
E(TOT)                                     ...   -397.662832410
E(CCSD(T))                                 ...   -397.668694250

MULLIKEN ATOMIC CHARGES AND SPIN DENSITIES
------------------------------------------
   0 S :   -0.000000    2.000000
Sum of atomic charges       :   -0.0000000

LOEWDIN ATOMIC CHARGES AND SPIN DENSITIES
-----------------------------------------
   0 S :   -0.000000    2.000000

FINAL SINGLE POINT ENERGY      -397.668694250445

DIPOLE MOMENT
-------------
                                X             Y             Z
Electronic contribution:      0.00000      -0.00000      -0.00000
Nuclear contribution   :      0.00000       0.00000       0.00000
                        -----------------------------------------
Total Dipole Moment    :      0.00000      -0.00000      -0.00000
                        -----------------------------------------
Magnitude (a.u.)       :      0.00000
Magnitude (Debye)      :      0.00000

Rotational constants in cm-1:     0.000000     0.000000     0.000000
Rotational constants in MHz :     0.000000     0.000000     0.000000

                             ****ORCA TERMINATED NORMALLY****
TOTAL RUN TIME: 0 days 0 hours 0 minutes 12 seconds 672 msec
