                         Program Version 4.2.0 -  RELEASE  -
|  1> #
|  2> # 18_Ar CCSD(T)/Def2-QZVP
|  3> #
|  4> ! CCSD(T) Def2-QZVP tightscf
|  5>
|  6> *xyz 0 1
|  7>  Ar 0.0 0.0 0.0
|  8> *
|  9>
| 10> %maxcore 5000
| 11>
| 12> %pal
| 13> nprocs 10
| 14> end
| 15>
| 16>
| 17>                          ****END OF INPUT****

CARTESIAN COORDINATES (ANGSTROEM)
---------------------------------
  Ar     0.000000    0.000000    0.000000

 Total Charge           Charge          ....    0
 Multiplicity           Mult            ....    1
 Number of Electrons    NEL             ....   18
 Basis Dimension        Dim             ....   70

ORBITAL ENERGIES
----------------

  NO   OCC          E(Eh)            E(eV)
   0   2.0000    -118.610347     -3227.5516
   1   2.0000     -12.322109      -335.3016
   2   2.0000      -9.571418      -260.4515
   3   2.0000      -9.571418      -260.4515
   4   2.0000      -9.571418      -260.4515
   5   2.0000      -1.277295       -34.7570
   6   2.0000      -0.590961       -16.0809
   7   2.0000      -0.590961       -16.0809
   8   2.0000      -0.590961       -16.0809
   9   0.0000       0.316833         8.6215
  10   0.0000       0.316833         8.6215
  11   0.0000       0.316833         8.6215
  12   0.0000       0.440682        11.9916
  13   0.0000       0.555068        15.1042

E(0)                                       ...   -526.817194903
E(0)                                       ...   -526.817194903
E(CORR)                                    ...     -0.249537936
E(TOT)                                     ...   -527.066732839
E(CCSD(T))                                 ...   -527.075502131

MULLIKEN ATOMIC CHARGES
-----------------------
   0 Ar:   -0.000000
Sum of atomic charges:   -0.0000000

LOEWDIN ATOMIC CHARGES
----------------------
   0 Ar:    0.000000

FINAL SINGLE POINT ENERGY      -527.075502130533

DIPOLE MOMENT
-------------
                                X             Y             Z
Electronic contribution:      0.00000       0.00000      -0.00000
Nuclear contribution   :      0.00000       0.00000       0.00000
                        -----------------------------------------
Total Dipole Moment    :      0.00000       0.00000      -0.00000
                        -----------------------------------------
Magnitude (a.u.)       :      0.00000
Magnitude (Debye)      :      0.00000

Rotational constants in cm-1:     0.000000     0.000000     0.000000
Rotational constants in MHz :     0.000000     0.000000     0.000000

                             ****ORCA TERMINATED NORMALLY****
TOTAL RUN TIME: 0 days 0 hours 0 minutes 5 seconds 540 msec
