                         Program Version 4.2.0 -  RELEASE  -
|  1> #
|  2> # 19_K CCSD(T)/Def2-QZVP
|  3> #
|  4> ! CCSD(T) Def2-QZVP tightscf
|  5>
|  6> *xyz 0 2
|  7>  K 0.0 0.0 0.0
|  8> *
|  9>
| 10> %maxcore 5000
| 11>
| 12> %pal
| 13> nprocs 24
| 14> end
| 15>
| 16>
| 17>                          ****END OF INPUT****

CARTESIAN COORDINATES (ANGSTROEM)
---------------------------------
  K      0.000000    0.000000    0.000000

 Total Charge           Charge          ....    0
 Multiplicity           Mult            ....    2
 Number of Electrons    NEL             ....   19
 Basis Dimension        Dim             ....   56

ORBITAL ENERGIES
----------------
                 SPIN UP ORBITALS
  NO   OCC          E(Eh)            E(eV)
   0   1.0000    -133.534044     -3633.6461
   1   1.0000     -14.491227      -394.3263
   2   1.0000     -11.519811      -313.4700
   3   1.0000     -11.519811      -313.4700
   4   1.0000     -11.519811      -313.4700
   5   1.0000      -1.751166       -47.6517
   6   1.0000      -0.955128       -25.9903
   7   1.0000      -0.955128       -25.9903
   8   1.0000      -0.955128       -25.9903
   9   1.0000      -0.147642        -4.0175
  10   0.0000       0.013302         0.3620
  11   0.0000       0.013302         0.3620
  12   0.0000       0.013302         0.3620
  13   0.0000       0.062175         1.6919
  14   0.0000       0.077438         2.1072

                 SPIN DOWN ORBITALS
  NO   OCC          E(Eh)            E(eV)
   0   1.0000    -133.533021     -3633.6182
   1   1.0000     -14.489316      -394.2743
   2   1.0000     -11.519382      -313.4583
   3   1.0000     -11.519382      -313.4583
   4   1.0000     -11.519382      -313.4583
   5   1.0000      -1.746285       -47.5188
   6   1.0000      -0.953542       -25.9472
   7   1.0000      -0.953542       -25.9472
   8   1.0000      -0.953542       -25.9472
   9   0.0000       0.011587         0.3153
  10   0.0000       0.028285         0.7697
  11   0.0000       0.028285         0.7697
  12   0.0000       0.028285         0.7697
  13   0.0000       0.086948         2.3660

E(0)                                       ...   -599.164594370
E(0)                                       ...   -599.164594370
E(CORR)                                    ...     -0.188723211
E(TOT)                                     ...   -599.353317580
E(CCSD(T))                                 ...   -599.356993216

MULLIKEN ATOMIC CHARGES AND SPIN DENSITIES
------------------------------------------
   0 K :   -0.000000    1.000000
Sum of atomic charges       :   -0.0000000

LOEWDIN ATOMIC CHARGES AND SPIN DENSITIES
-----------------------------------------
   0 K :    0.000000    1.000000

FINAL SINGLE POINT ENERGY      -599.356993216201

DIPOLE MOMENT
-------------
                                X             Y             Z
Electronic contribution:      0.00000      -0.00000       0.00000
Nuclear contribution   :      0.00000       0.00000       0.00000
                        -----------------------------------------
Total Dipole Moment    :      0.00000      -0.00000       0.00000
                        -----------------------------------------
Magnitude (a.u.)       :      0.00000
Magnitude (Debye)      :      0.00000

Rotational constants in cm-1:     0.000000     0.000000     0.000000
Rotational constants in MHz :     0.000000     0.000000     0.000000

                             ****ORCA TERMINATED NORMALLY****
TOTAL RUN TIME: 0 days 0 hours 0 minutes 12 seconds 24 msec
