                         Program Version 4.2.0 -  RELEASE  -
|  1> #
|  2> # 20_Ca CCSD(T)/Def2-QZVP
|  3> #
|  4> ! CCSD(T) Def2-QZVP tightscf
|  5>
|  6> *xyz 0 1
|  7>  Ca 0.0 0.0 0.0
|  8> *
|  9>
| 10> %maxcore 5000
| 11>
| 12> %pal
| 13> nprocs 15
| 14> end
| 15>
| 16>
| 17>                          ****END OF INPUT****

CARTESIAN COORDINATES (ANGSTROEM)
---------------------------------
  Ca     0.000000    0.000000    0.000000

 Total Charge           Charge          ....    0
 Multiplicity           Mult            ....    1
 Number of Electrons    NEL             ....   20
 Basis Dimension        Dim             ....   56

ORBITAL ENERGIES
----------------

  NO   OCC          E(Eh)            E(eV)
   0   2.0000    -149.364592     -4064.4172
   1   2.0000     -16.823253      -457.7840
   2   2.0000     -13.629793      -370.8855
   3   2.0000     -13.629793      -370.8855
   4   2.0000     -13.629793      -370.8855
   5   2.0000      -2.245441       -61.1016
   6   2.0000      -1.340749       -36.4836
   7   2.0000      -1.340749       -36.4836
   8   2.0000      -1.340749       -36.4836
   9   2.0000      -0.195528        -5.3206
  10   0.0000       0.017790         0.4841
  11   0.0000       0.017790         0.4841
  12   0.0000       0.017790         0.4841
  13   0.0000       0.066852         1.8191
  14   0.0000       0.092773         2.5245

E(0)                                       ...   -676.757908303
E(0)                                       ...   -676.757908303
E(CORR)                                    ...     -0.226890638
E(TOT)                                     ...   -676.984798941
E(CCSD(T))                                 ...   -676.990577108

MULLIKEN ATOMIC CHARGES
-----------------------
   0 Ca:    0.000000
Sum of atomic charges:    0.0000000

LOEWDIN ATOMIC CHARGES
----------------------
   0 Ca:    0.000000

FINAL SINGLE POINT ENERGY      -676.990577107912

DIPOLE MOMENT
-------------
                                X             Y             Z
Electronic contribution:      0.00000       0.00000       0.00000
Nuclear contribution   :      0.00000       0.00000       0.00000
                        -----------------------------------------
Total Dipole Moment    :      0.00000       0.00000       0.00000
                        -----------------------------------------
Magnitude (a.u.)       :      0.00000
Magnitude (Debye)      :      0.00000

Rotational constants in cm-1:     0.000000     0.000000     0.000000
Rotational constants in MHz :     0.000000     0.000000     0.000000

                             ****ORCA TERMINATED NORMALLY****
TOTAL RUN TIME: 0 days 0 hours 0 minutes 5 seconds 785 msec
