                         Program Version 4.2.0 -  RELEASE  -
|  1> #
|  2> # 21_Sc CCSD(T)/Def2-QZVP
|  3> #
|  4> ! CCSD(T) Def2-QZVP tightscf
|  5>
|  6> *xyz 0 2
|  7>  Sc 0.0 0.0 0.0
|  8> *
|  9>
| 10> %maxcore 5000
| 11>
| 12> %pal
| 13> nprocs 24
| 14> end
| 15>
| 16>
| 17>                          ****END OF INPUT****

CARTESIAN COORDINATES (ANGSTROEM)
---------------------------------
  Sc     0.000000    0.000000    0.000000

 Total Charge           Charge          ....    0
 Multiplicity           Mult            ....    2
 Number of Electrons    NEL             ....   21
 Basis Dimension        Dim             ....   84

ORBITAL ENERGIES
----------------
                 SPIN UP ORBITALS
  NO   OCC          E(Eh)            E(eV)
   0   1.0000    -165.899259     -4514.3483
   1   1.0000     -19.085743      -519.3495
   2   1.0000     -15.674934      -426.5366
   3   1.0000     -15.672794      -426.4784
   4   1.0000     -15.672793      -426.4784
   5   1.0000      -2.593309       -70.5675
   6   1.0000      -1.621090       -44.1121
   7   1.0000      -1.621085       -44.1120
   8   1.0000      -1.581947       -43.0470
   9   1.0000      -0.352787        -9.5998
  10   1.0000      -0.216081        -5.8799
  11   0.0000       0.020180         0.5491
  12   0.0000       0.020180         0.5491
  13   0.0000       0.020710         0.5635
  14   0.0000       0.077107         2.0982
  15   0.0000       0.084889         2.3100

                 SPIN DOWN ORBITALS
  NO   OCC          E(Eh)            E(eV)
   0   1.0000    -165.899394     -4514.3520
   1   1.0000     -19.073052      -519.0041
   2   1.0000     -15.672560      -426.4720
   3   1.0000     -15.654683      -425.9856
   4   1.0000     -15.654681      -425.9855
   5   1.0000      -2.538826       -69.0850
   6   1.0000      -1.575258       -42.8649
   7   1.0000      -1.521167       -41.3931
   8   1.0000      -1.521160       -41.3929
   9   1.0000      -0.204531        -5.5656
  10   0.0000       0.017397         0.4734
  11   0.0000       0.023537         0.6405
  12   0.0000       0.023537         0.6405
  13   0.0000       0.078759         2.1432
  14   0.0000       0.088363         2.4045

E(0)                                       ...   -759.740051116
E(0)                                       ...   -759.740051116
E(CORR)                                    ...     -0.297326627
E(TOT)                                     ...   -760.037377743
E(CCSD(T))                                 ...   -760.047472547

MULLIKEN ATOMIC CHARGES AND SPIN DENSITIES
------------------------------------------
   0 Sc:   -0.000000    1.000000
Sum of atomic charges       :   -0.0000000

LOEWDIN ATOMIC CHARGES AND SPIN DENSITIES
-----------------------------------------
   0 Sc:   -0.000000    1.000000

FINAL SINGLE POINT ENERGY      -760.047472546626

DIPOLE MOMENT
-------------
                                X             Y             Z
Electronic contribution:      0.00000       0.00000      -0.00000
Nuclear contribution   :      0.00000       0.00000       0.00000
                        -----------------------------------------
Total Dipole Moment    :      0.00000       0.00000      -0.00000
                        -----------------------------------------
Magnitude (a.u.)       :      0.00000
Magnitude (Debye)      :      0.00000

Rotational constants in cm-1:     0.000000     0.000000     0.000000
Rotational constants in MHz :     0.000000     0.000000     0.000000

                             ****ORCA TERMINATED NORMALLY****
TOTAL RUN TIME: 0 days 0 hours 0 minutes 29 seconds 354 msec
