                         Program Version 4.2.0 -  RELEASE  -
|  1> #
|  2> # 22_Ti CCSD(T)/Def2-QZVP
|  3> #
|  4> ! CCSD(T) Def2-QZVP tightscf
|  5>
|  6> *xyz 0 3
|  7>  Ti 0.0 0.0 0.0
|  8> *
|  9>
| 10> %maxcore 5000
| 11>
| 12> %pal
| 13> nprocs 24
| 14> end
| 15>
| 16>
| 17>                          ****END OF INPUT****

CARTESIAN COORDINATES (ANGSTROEM)
---------------------------------
  Ti     0.000000    0.000000    0.000000

 Total Charge           Charge          ....    0
 Multiplicity           Mult            ....    3
 Number of Electrons    NEL             ....   22
 Basis Dimension        Dim             ....   84

ORBITAL ENERGIES
----------------
                 SPIN UP ORBITALS
  NO   OCC          E(Eh)            E(eV)
   0   1.0000    -183.276110     -4987.1965
   1   1.0000     -21.442373      -583.4766
   2   1.0000     -17.811433      -484.6737
   3   1.0000     -17.811433      -484.6737
   4   1.0000     -17.809665      -484.6256
   5   1.0000      -2.938466       -79.9597
   6   1.0000      -1.905752       -51.8582
   7   1.0000      -1.860756       -50.6337
   8   1.0000      -1.860756       -50.6337
   9   1.0000      -0.436747       -11.8845
  10   1.0000      -0.436747       -11.8845
  11   1.0000      -0.232444        -6.3251
  12   0.0000       0.021405         0.5825
  13   0.0000       0.021405         0.5825
  14   0.0000       0.021961         0.5976
  15   0.0000       0.072003         1.9593
  16   0.0000       0.094465         2.5705

                 SPIN DOWN ORBITALS
  NO   OCC          E(Eh)            E(eV)
   0   1.0000    -183.276023     -4987.1941
   1   1.0000     -21.409364      -582.5784
   2   1.0000     -17.784876      -483.9511
   3   1.0000     -17.784876      -483.9511
   4   1.0000     -17.762736      -483.3486
   5   1.0000      -2.811999       -76.5184
   6   1.0000      -1.739390       -47.3312
   7   1.0000      -1.739390       -47.3312
   8   1.0000      -1.677570       -45.6490
   9   1.0000      -0.210583        -5.7302
  10   0.0000       0.021737         0.5915
  11   0.0000       0.021737         0.5915
  12   0.0000       0.025999         0.7075
  13   0.0000       0.076283         2.0758
  14   0.0000       0.105543         2.8720

E(0)                                       ...   -848.401595455
E(0)                                       ...   -848.401595455
E(CORR)                                    ...     -0.336136457
E(TOT)                                     ...   -848.737731912
E(CCSD(T))                                 ...   -848.750085459

MULLIKEN ATOMIC CHARGES AND SPIN DENSITIES
------------------------------------------
   0 Ti:   -0.000000    2.000000
Sum of atomic charges       :   -0.0000000

LOEWDIN ATOMIC CHARGES AND SPIN DENSITIES
-----------------------------------------
   0 Ti:   -0.000000    2.000000

FINAL SINGLE POINT ENERGY      -848.750085458609

DIPOLE MOMENT
-------------
                                X             Y             Z
Electronic contribution:     -0.00000      -0.00000       0.00000
Nuclear contribution   :      0.00000       0.00000       0.00000
                        -----------------------------------------
Total Dipole Moment    :     -0.00000      -0.00000       0.00000
                        -----------------------------------------
Magnitude (a.u.)       :      0.00000
Magnitude (Debye)      :      0.00000

Rotational constants in cm-1:     0.000000     0.000000     0.000000
Rotational constants in MHz :     0.000000     0.000000     0.000000

                             ****ORCA TERMINATED NORMALLY****
TOTAL RUN TIME: 0 days 0 hours 0 minutes 34 seconds 795 msec
