                         Program Version 4.2.0 -  RELEASE  -
|  1> #
|  2> # 25_Mn CCSD(T)/Def2-QZVP
|  3> #
|  4> ! CCSD(T) Def2-QZVP tightscf
|  5>
|  6> *xyz 0 6
|  7>  Mn 0.0 0.0 0.0
|  8> *
|  9>
| 10> %maxcore 5000
| 11>
| 12> %pal
| 13> nprocs 24
| 14> end
| 15>
| 16>
| 17>                          ****END OF INPUT****

CARTESIAN COORDINATES (ANGSTROEM)
---------------------------------
  Mn     0.000000    0.000000    0.000000

 Total Charge           Charge          ....    0
 Multiplicity           Mult            ....    6
 Number of Electrons    NEL             ....   25
 Basis Dimension        Dim             ....   84

ORBITAL ENERGIES
----------------
                 SPIN UP ORBITALS
  NO   OCC          E(Eh)            E(eV)
   0   1.0000    -240.361926     -6540.5805
   1   1.0000     -28.963388      -788.1339
   2   1.0000     -24.686347      -671.7496
   3   1.0000     -24.660807      -671.0547
   4   1.0000     -24.660790      -671.0542
   5   1.0000      -3.783788      -102.9621
   6   1.0000      -2.534236       -68.9601
   7   1.0000      -2.471361       -67.2492
   8   1.0000      -2.471319       -67.2480
   9   1.0000      -0.447549       -12.1784
  10   1.0000      -0.440061       -11.9747
  11   1.0000      -0.440045       -11.9742
  12   1.0000      -0.415659       -11.3107
  13   1.0000      -0.371833       -10.1181
  14   1.0000      -0.226507        -6.1636
  15   0.0000       0.026862         0.7310
  16   0.0000       0.031663         0.8616
  17   0.0000       0.031667         0.8617
  18   0.0000       0.092590         2.5195
  19   0.0000       0.136180         3.7057

                 SPIN DOWN ORBITALS
  NO   OCC          E(Eh)            E(eV)
   0   1.0000    -240.359369     -6540.5110
   1   1.0000     -28.863845      -785.4252
   2   1.0000     -24.572115      -668.6412
   3   1.0000     -24.572011      -668.6384
   4   1.0000     -24.572011      -668.6384
   5   1.0000      -3.467555       -94.3570
   6   1.0000      -2.128574       -57.9215
   7   1.0000      -2.128544       -57.9206
   8   1.0000      -2.082227       -56.6603
   9   1.0000      -0.227261        -6.1841
  10   0.0000       0.019381         0.5274
  11   0.0000       0.051666         1.4059
  12   0.0000       0.052438         1.4269
  13   0.0000       0.052438         1.4269
  14   0.0000       0.140029         3.8104

E(0)                                       ...  -1149.752228591
E(0)                                       ...  -1149.752228591
E(CORR)                                    ...     -0.482129441
E(TOT)                                     ...  -1150.234358032
E(CCSD(T))                                 ...  -1150.250015454

MULLIKEN ATOMIC CHARGES AND SPIN DENSITIES
------------------------------------------
   0 Mn:   -0.000000    5.000000
Sum of atomic charges       :   -0.0000000

LOEWDIN ATOMIC CHARGES AND SPIN DENSITIES
-----------------------------------------
   0 Mn:   -0.000000    5.000000

FINAL SINGLE POINT ENERGY     -1150.250015454246

DIPOLE MOMENT
-------------
                                X             Y             Z
Electronic contribution:      0.00000       0.00000       0.00000
Nuclear contribution   :      0.00000       0.00000       0.00000
                        -----------------------------------------
Total Dipole Moment    :      0.00000       0.00000       0.00000
                        -----------------------------------------
Magnitude (a.u.)       :      0.00000
Magnitude (Debye)      :      0.00000

Rotational constants in cm-1:     0.000000     0.000000     0.000000
Rotational constants in MHz :     0.000000     0.000000     0.000000

                             ****ORCA TERMINATED NORMALLY****
TOTAL RUN TIME: 0 days 0 hours 0 minutes 26 seconds 927 msec
