                         Program Version 4.2.0 -  RELEASE  -
|  1> #
|  2> # 26_Fe CCSD(T)/Def2-QZVP
|  3> #
|  4> ! CCSD(T) Def2-QZVP tightscf slowconv
|  5>
|  6> *xyz 0 5
|  7>  Fe 0.0 0.0 0.0
|  8> *
|  9>
| 10> %maxcore 5000
| 11>
| 12> %pal
| 13> nprocs 24
| 14> end
| 15>
| 16>
| 17>                          ****END OF INPUT****

CARTESIAN COORDINATES (ANGSTROEM)
---------------------------------
  Fe     0.000000    0.000000    0.000000

 Total Charge           Charge          ....    0
 Multiplicity           Mult            ....    5
 Number of Electrons    NEL             ....   26
 Basis Dimension        Dim             ....   84

ORBITAL ENERGIES
----------------
                 SPIN UP ORBITALS
  NO   OCC          E(Eh)            E(eV)
   0   1.0000    -261.177238     -7106.9940
   1   1.0000     -31.756588      -864.1407
   2   1.0000     -27.237704      -741.1756
   3   1.0000     -27.237704      -741.1756
   4   1.0000     -27.237704      -741.1756
   5   1.0000      -4.085596      -111.1747
   6   1.0000      -2.698486       -73.4295
   7   1.0000      -2.698485       -73.4295
   8   1.0000      -2.698484       -73.4295
   9   1.0000      -0.466247       -12.6872
  10   1.0000      -0.466246       -12.6872
  11   1.0000      -0.466246       -12.6872
  12   1.0000      -0.417032       -11.3480
  13   1.0000      -0.417032       -11.3480
  14   1.0000      -0.228981        -6.2309
  15   0.0000       0.032449         0.8830
  16   0.0000       0.032449         0.8830
  17   0.0000       0.032449         0.8830
  18   0.0000       0.100607         2.7376
  19   0.0000       0.150095         4.0843

                 SPIN DOWN ORBITALS
  NO   OCC          E(Eh)            E(eV)
   0   1.0000    -261.174438     -7106.9178
   1   1.0000     -31.671043      -861.8129
   2   1.0000     -27.154822      -738.9203
   3   1.0000     -27.154822      -738.9203
   4   1.0000     -27.154822      -738.9203
   5   1.0000      -3.830611      -104.2362
   6   1.0000      -2.395467       -65.1840
   7   1.0000      -2.395466       -65.1839
   8   1.0000      -2.395465       -65.1839
   9   1.0000      -0.321077        -8.7370
  10   1.0000      -0.321077        -8.7370
  11   0.0000       0.018491         0.5032
  12   0.0000       0.054316         1.4780
  13   0.0000       0.054316         1.4780
  14   0.0000       0.054316         1.4780
  15   0.0000       0.145861         3.9691

E(0)                                       ...  -1262.386565245
E(0)                                       ...  -1262.386565245
E(CORR)                                    ...     -0.541769150
E(TOT)                                     ...  -1262.928334395
E(CCSD(T))                                 ...  -1262.946058306

MULLIKEN ATOMIC CHARGES AND SPIN DENSITIES
------------------------------------------
   0 Fe:   -0.000000    4.000000
Sum of atomic charges       :   -0.0000000

LOEWDIN ATOMIC CHARGES AND SPIN DENSITIES
-----------------------------------------
   0 Fe:    0.000000    4.000000

FINAL SINGLE POINT ENERGY     -1262.946058306080

DIPOLE MOMENT
-------------
                                X             Y             Z
Electronic contribution:      0.00000      -0.00000      -0.00000
Nuclear contribution   :      0.00000       0.00000       0.00000
                        -----------------------------------------
Total Dipole Moment    :      0.00000      -0.00000      -0.00000
                        -----------------------------------------
Magnitude (a.u.)       :      0.00000
Magnitude (Debye)      :      0.00000

Rotational constants in cm-1:     0.000000     0.000000     0.000000
Rotational constants in MHz :     0.000000     0.000000     0.000000

                             ****ORCA TERMINATED NORMALLY****
TOTAL RUN TIME: 0 days 0 hours 0 minutes 22 seconds 753 msec
