                         Program Version 4.2.0 -  RELEASE  -
|  1> #
|  2> # 27_Co CCSD(T)/Def2-QZVP
|  3> #
|  4> ! CCSD(T) Def2-QZVP tightscf
|  5>
|  6> *xyz 0 4
|  7>  Co 0.0 0.0 0.0
|  8> *
|  9>
| 10> %maxcore 5000
| 11>
| 12> %pal
| 13> nprocs 24
| 14> end
| 15>
| 16>
| 17>                          ****END OF INPUT****

CARTESIAN COORDINATES (ANGSTROEM)
---------------------------------
  Co     0.000000    0.000000    0.000000

 Total Charge           Charge          ....    0
 Multiplicity           Mult            ....    4
 Number of Electrons    NEL             ....   27
 Basis Dimension        Dim             ....   84

ORBITAL ENERGIES
----------------
                 SPIN UP ORBITALS
  NO   OCC          E(Eh)            E(eV)
   0   1.0000    -282.856921     -7696.9281
   1   1.0000     -34.665998      -943.3098
   2   1.0000     -29.920858      -814.1879
   3   1.0000     -29.920858      -814.1879
   4   1.0000     -29.920858      -814.1879
   5   1.0000      -4.393092      -119.5421
   6   1.0000      -2.907485       -79.1167
   7   1.0000      -2.907485       -79.1167
   8   1.0000      -2.907485       -79.1167
   9   1.0000      -0.498784       -13.5726
  10   1.0000      -0.498784       -13.5726
  11   1.0000      -0.446311       -12.1447
  12   1.0000      -0.446311       -12.1447
  13   1.0000      -0.446311       -12.1447
  14   1.0000      -0.232383        -6.3235
  15   0.0000       0.035498         0.9659
  16   0.0000       0.035498         0.9659
  17   0.0000       0.035498         0.9659
  18   0.0000       0.107648         2.9292
  19   0.0000       0.164440         4.4746

                 SPIN DOWN ORBITALS
  NO   OCC          E(Eh)            E(eV)
   0   1.0000    -282.854162     -7696.8530
   1   1.0000     -34.601406      -941.5521
   2   1.0000     -29.859064      -812.5064
   3   1.0000     -29.859064      -812.5064
   4   1.0000     -29.859064      -812.5064
   5   1.0000      -4.210319      -114.5686
   6   1.0000      -2.692935       -73.2785
   7   1.0000      -2.692935       -73.2785
   8   1.0000      -2.692935       -73.2785
   9   1.0000      -0.379243       -10.3197
  10   1.0000      -0.379243       -10.3197
  11   1.0000      -0.379243       -10.3197
  12   0.0000       0.017289         0.4704
  13   0.0000       0.058045         1.5795
  14   0.0000       0.058045         1.5795
  15   0.0000       0.058045         1.5795
  16   0.0000       0.150681         4.1002

E(0)                                       ...  -1381.366060095
E(0)                                       ...  -1381.366060095
E(CORR)                                    ...     -0.606450494
E(TOT)                                     ...  -1381.972510589
E(CCSD(T))                                 ...  -1381.992616944

MULLIKEN ATOMIC CHARGES AND SPIN DENSITIES
------------------------------------------
   0 Co:   -0.000000    3.000000
Sum of atomic charges       :   -0.0000000

LOEWDIN ATOMIC CHARGES AND SPIN DENSITIES
-----------------------------------------
   0 Co:   -0.000000    3.000000

FINAL SINGLE POINT ENERGY     -1381.992616944317

DIPOLE MOMENT
-------------
                                X             Y             Z
Electronic contribution:     -0.00000      -0.00000       0.00000
Nuclear contribution   :      0.00000       0.00000       0.00000
                        -----------------------------------------
Total Dipole Moment    :     -0.00000      -0.00000       0.00000
                        -----------------------------------------
Magnitude (a.u.)       :      0.00000
Magnitude (Debye)      :      0.00000

Rotational constants in cm-1:     0.000000     0.000000     0.000000
Rotational constants in MHz :     0.000000     0.000000     0.000000

                             ****ORCA TERMINATED NORMALLY****
TOTAL RUN TIME: 0 days 0 hours 0 minutes 26 seconds 46 msec
