                         Program Version 4.2.0 -  RELEASE  -
|  1> #
|  2> # 28_Ni CCSD(T)/Def2-QZVP
|  3> #
|  4> ! CCSD(T) Def2-QZVP tightscf slowconv
|  5>
|  6> *xyz 0 3
|  7>  Ni 0.0 0.0 0.0
|  8> *
|  9>
| 10> %maxcore 5000
| 11>
| 12> %pal
| 13> nprocs 24
| 14> end
| 15>
| 16>
| 17>                          ****END OF INPUT****

CARTESIAN COORDINATES (ANGSTROEM)
---------------------------------
  Ni     0.000000    0.000000    0.000000

 Total Charge           Charge          ....    0
 Multiplicity           Mult            ....    3
 Number of Electrons    NEL             ....   28
 Basis Dimension        Dim             ....   84

ORBITAL ENERGIES
----------------
                 SPIN UP ORBITALS
  NO   OCC          E(Eh)            E(eV)
   0   1.0000    -305.399228     -8310.3355
   1   1.0000     -37.690148     -1025.6011
   2   1.0000     -32.736990      -890.8188
   3   1.0000     -32.719998      -890.3564
   4   1.0000     -32.694835      -889.6717
   5   1.0000      -4.705500      -128.0432
   6   1.0000      -3.161061       -86.0168
   7   1.0000      -3.124006       -85.0085
   8   1.0000      -3.069922       -83.5368
   9   1.0000      -0.548946       -14.9376
  10   1.0000      -0.491086       -13.3631
  11   1.0000      -0.470783       -12.8106
  12   1.0000      -0.456687       -12.4271
  13   1.0000      -0.452340       -12.3088
  14   1.0000      -0.236279        -6.4295
  15   0.0000       0.035682         0.9709
  16   0.0000       0.037442         1.0188
  17   0.0000       0.039863         1.0847
  18   0.0000       0.114487         3.1154
  19   0.0000       0.168902         4.5961

                 SPIN DOWN ORBITALS
  NO   OCC          E(Eh)            E(eV)
   0   1.0000    -305.396766     -8310.2685
   1   1.0000     -37.653557     -1024.6054
   2   1.0000     -32.684304      -889.3851
   3   1.0000     -32.683109      -889.3526
   4   1.0000     -32.682422      -889.3339
   5   1.0000      -4.605568      -125.3239
   6   1.0000      -3.038291       -82.6761
   7   1.0000      -3.000688       -81.6529
   8   1.0000      -2.974663       -80.9447
   9   1.0000      -0.473341       -12.8803
  10   1.0000      -0.434404       -11.8207
  11   1.0000      -0.408099       -11.1049
  12   1.0000      -0.400632       -10.9018
  13   0.0000       0.016068         0.4372
  14   0.0000       0.059600         1.6218
  15   0.0000       0.059997         1.6326
  16   0.0000       0.060626         1.6497
  17   0.0000       0.155528         4.2321

E(0)                                       ...  -1506.829171171
E(0)                                       ...  -1506.829171171
E(CORR)                                    ...     -0.675187641
E(TOT)                                     ...  -1507.504358811
E(CCSD(T))                                 ...  -1507.526987996

MULLIKEN ATOMIC CHARGES AND SPIN DENSITIES
------------------------------------------
   0 Ni:   -0.000000    2.000000
Sum of atomic charges       :   -0.0000000

LOEWDIN ATOMIC CHARGES AND SPIN DENSITIES
-----------------------------------------
   0 Ni:    0.000000    2.000000

FINAL SINGLE POINT ENERGY     -1507.526987995731

DIPOLE MOMENT
-------------
                                X             Y             Z
Electronic contribution:      0.00000       0.00000       0.00000
Nuclear contribution   :      0.00000       0.00000       0.00000
                        -----------------------------------------
Total Dipole Moment    :      0.00000       0.00000       0.00000
                        -----------------------------------------
Magnitude (a.u.)       :      0.00000
Magnitude (Debye)      :      0.00000

Rotational constants in cm-1:     0.000000     0.000000     0.000000
Rotational constants in MHz :     0.000000     0.000000     0.000000

                             ****ORCA TERMINATED NORMALLY****
TOTAL RUN TIME: 0 days 0 hours 0 minutes 22 seconds 900 msec
