                         Program Version 4.2.0 -  RELEASE  -
|  1> #
|  2> # 31_Ga CCSD(T)/Def2-QZVP
|  3> #
|  4> ! CCSD(T) Def2-QZVP tightscf
|  5>
|  6> *xyz 0 2
|  7>  Ga 0.0 0.0 0.0
|  8> *
|  9>
| 10> %maxcore 5000
| 11>
| 12> %pal
| 13> nprocs 24
| 14> end
| 15>
| 16>
| 17>                          ****END OF INPUT****

CARTESIAN COORDINATES (ANGSTROEM)
---------------------------------
  Ga     0.000000    0.000000    0.000000

 Total Charge           Charge          ....    0
 Multiplicity           Mult            ....    2
 Number of Electrons    NEL             ....   31
 Basis Dimension        Dim             ....   75

ORBITAL ENERGIES
----------------
                 SPIN UP ORBITALS
  NO   OCC          E(Eh)            E(eV)
   0   1.0000    -378.817790    -10308.1561
   1   1.0000     -48.167067     -1310.6925
   2   1.0000     -42.493265     -1156.3005
   3   1.0000     -42.493142     -1156.2972
   4   1.0000     -42.493142     -1156.2972
   5   1.0000      -6.393760      -173.9831
   6   1.0000      -4.482197      -121.9668
   7   1.0000      -4.482197      -121.9668
   8   1.0000      -4.481950      -121.9601
   9   1.0000      -1.196095       -32.5474
  10   1.0000      -1.196095       -32.5474
  11   1.0000      -1.190383       -32.3920
  12   1.0000      -1.190383       -32.3920
  13   1.0000      -1.188630       -32.3443
  14   1.0000      -0.456069       -12.4103
  15   1.0000      -0.215594        -5.8666
  16   0.0000       0.020146         0.5482
  17   0.0000       0.020146         0.5482
  18   0.0000       0.138777         3.7763
  19   0.0000       0.170020         4.6265
  20   0.0000       0.194030         5.2798

                 SPIN DOWN ORBITALS
  NO   OCC          E(Eh)            E(eV)
   0   1.0000    -378.816667    -10308.1256
   1   1.0000     -48.167381     -1310.7011
   2   1.0000     -42.493418     -1156.3047
   3   1.0000     -42.493418     -1156.3047
   4   1.0000     -42.490686     -1156.2304
   5   1.0000      -6.392793      -173.9567
   6   1.0000      -4.483465      -122.0013
   7   1.0000      -4.483465      -122.0013
   8   1.0000      -4.473009      -121.7168
   9   1.0000      -1.197123       -32.5754
  10   1.0000      -1.197123       -32.5754
  11   1.0000      -1.188985       -32.3539
  12   1.0000      -1.188985       -32.3539
  13   1.0000      -1.186458       -32.2852
  14   1.0000      -0.394126       -10.7247
  15   0.0000       0.028720         0.7815
  16   0.0000       0.028720         0.7815
  17   0.0000       0.059748         1.6258
  18   0.0000       0.150375         4.0919
  19   0.0000       0.198385         5.3983

E(0)                                       ...  -1923.263575402
E(0)                                       ...  -1923.263575402
E(CORR)                                    ...     -0.225632630
E(TOT)                                     ...  -1923.489208032
E(CCSD(T))                                 ...  -1923.498041752

MULLIKEN ATOMIC CHARGES AND SPIN DENSITIES
------------------------------------------
   0 Ga:   -0.000000    1.000000
Sum of atomic charges       :   -0.0000000

LOEWDIN ATOMIC CHARGES AND SPIN DENSITIES
-----------------------------------------
   0 Ga:   -0.000000    1.000000

FINAL SINGLE POINT ENERGY     -1923.498041751538

DIPOLE MOMENT
-------------
                                X             Y             Z
Electronic contribution:     -0.00000      -0.00000      -0.00000
Nuclear contribution   :      0.00000       0.00000       0.00000
                        -----------------------------------------
Total Dipole Moment    :     -0.00000      -0.00000      -0.00000
                        -----------------------------------------
Magnitude (a.u.)       :      0.00000
Magnitude (Debye)      :      0.00000

Rotational constants in cm-1:     0.000000     0.000000     0.000000
Rotational constants in MHz :     0.000000     0.000000     0.000000

                             ****ORCA TERMINATED NORMALLY****
TOTAL RUN TIME: 0 days 0 hours 0 minutes 18 seconds 721 msec
