                         Program Version 4.2.0 -  RELEASE  -
|  1> #
|  2> # 32_Ge CCSD(T)/Def2-QZVP
|  3> #
|  4> ! CCSD(T) Def2-QZVP tightscf
|  5>
|  6> *xyz 0 3
|  7>  Ge 0.0 0.0 0.0
|  8> *
|  9>
| 10> %maxcore 5000
| 11>
| 12> %pal
| 13> nprocs 24
| 14> end
| 15>
| 16>
| 17>                          ****END OF INPUT****

CARTESIAN COORDINATES (ANGSTROEM)
---------------------------------
  Ge     0.000000    0.000000    0.000000

 Total Charge           Charge          ....    0
 Multiplicity           Mult            ....    3
 Number of Electrons    NEL             ....   32
 Basis Dimension        Dim             ....   75

ORBITAL ENERGIES
----------------
                 SPIN UP ORBITALS
  NO   OCC          E(Eh)            E(eV)
   0   1.0000    -405.245549    -11027.2920
   1   1.0000     -52.149868     -1419.0700
   2   1.0000     -46.237338     -1258.1819
   3   1.0000     -46.237338     -1258.1819
   4   1.0000     -46.236491     -1258.1589
   5   1.0000      -7.192915      -195.7292
   6   1.0000      -5.165346      -140.5562
   7   1.0000      -5.165346      -140.5562
   8   1.0000      -5.164741      -140.5397
   9   1.0000      -1.640577       -44.6424
  10   1.0000      -1.638154       -44.5764
  11   1.0000      -1.638154       -44.5764
  12   1.0000      -1.631274       -44.3892
  13   1.0000      -1.631274       -44.3892
  14   1.0000      -0.629700       -17.1350
  15   1.0000      -0.291140        -7.9223
  16   1.0000      -0.291140        -7.9223
  17   0.0000      -0.008375        -0.2279
  18   0.0000       0.172995         4.7074
  19   0.0000       0.218821         5.9544
  20   0.0000       0.218821         5.9544
  21   0.0000       0.239998         6.5307

                 SPIN DOWN ORBITALS
  NO   OCC          E(Eh)            E(eV)
   0   1.0000    -405.241750    -11027.1886
   1   1.0000     -52.149206     -1419.0520
   2   1.0000     -46.236336     -1258.1547
   3   1.0000     -46.232349     -1258.0462
   4   1.0000     -46.232349     -1258.0462
   5   1.0000      -7.187058      -195.5698
   6   1.0000      -5.165705      -140.5660
   7   1.0000      -5.151306      -140.1742
   8   1.0000      -5.151306      -140.1742
   9   1.0000      -1.639295       -44.6075
  10   1.0000      -1.635505       -44.5044
  11   1.0000      -1.635505       -44.5044
  12   1.0000      -1.624634       -44.2085
  13   1.0000      -1.624634       -44.2085
  14   1.0000      -0.478994       -13.0341
  15   0.0000       0.013767         0.3746
  16   0.0000       0.053439         1.4541
  17   0.0000       0.053439         1.4541
  18   0.0000       0.197691         5.3794
  19   0.0000       0.250074         6.8049

E(0)                                       ...  -2075.362950929
E(0)                                       ...  -2075.362950929
E(CORR)                                    ...     -0.235312142
E(TOT)                                     ...  -2075.598263071
E(CCSD(T))                                 ...  -2075.605898474

MULLIKEN ATOMIC CHARGES AND SPIN DENSITIES
------------------------------------------
   0 Ge:   -0.000000    2.000000
Sum of atomic charges       :   -0.0000000

LOEWDIN ATOMIC CHARGES AND SPIN DENSITIES
-----------------------------------------
   0 Ge:    0.000000    2.000000

FINAL SINGLE POINT ENERGY     -2075.605898473567

DIPOLE MOMENT
-------------
                                X             Y             Z
Electronic contribution:     -0.00000       0.00000       0.00000
Nuclear contribution   :      0.00000       0.00000       0.00000
                        -----------------------------------------
Total Dipole Moment    :     -0.00000       0.00000       0.00000
                        -----------------------------------------
Magnitude (a.u.)       :      0.00000
Magnitude (Debye)      :      0.00000

Rotational constants in cm-1:     0.000000     0.000000     0.000000
Rotational constants in MHz :     0.000000     0.000000     0.000000

                             ****ORCA TERMINATED NORMALLY****
TOTAL RUN TIME: 0 days 0 hours 0 minutes 18 seconds 978 msec
