                         Program Version 4.2.0 -  RELEASE  -
|  1> #
|  2> # 33_As CCSD(T)/Def2-QZVP
|  3> #
|  4> ! CCSD(T) Def2-QZVP tightscf
|  5>
|  6> *xyz 0 4
|  7>  As 0.0 0.0 0.0
|  8> *
|  9>
| 10> %maxcore 5000
| 11>
| 12> %pal
| 13> nprocs 24
| 14> end
| 15>
| 16>
| 17>                          ****END OF INPUT****

CARTESIAN COORDINATES (ANGSTROEM)
---------------------------------
  As     0.000000    0.000000    0.000000

 Total Charge           Charge          ....    0
 Multiplicity           Mult            ....    4
 Number of Electrons    NEL             ....   33
 Basis Dimension        Dim             ....   75

ORBITAL ENERGIES
----------------
                 SPIN UP ORBITALS
  NO   OCC          E(Eh)            E(eV)
   0   1.0000    -432.591209    -11771.4053
   1   1.0000     -56.312183     -1532.3324
   2   1.0000     -50.158820     -1364.8909
   3   1.0000     -50.158820     -1364.8909
   4   1.0000     -50.158820     -1364.8909
   5   1.0000      -8.036531      -218.6851
   6   1.0000      -5.890677      -160.2935
   7   1.0000      -5.890677      -160.2935
   8   1.0000      -5.890677      -160.2935
   9   1.0000      -2.117331       -57.6155
  10   1.0000      -2.117331       -57.6155
  11   1.0000      -2.117331       -57.6155
  12   1.0000      -2.117331       -57.6155
  13   1.0000      -2.117331       -57.6155
  14   1.0000      -0.815532       -22.1918
  15   1.0000      -0.370130       -10.0718
  16   1.0000      -0.370130       -10.0718
  17   1.0000      -0.370130       -10.0718
  18   0.0000       0.211578         5.7573
  19   0.0000       0.215211         5.8562
  20   0.0000       0.215211         5.8562
  21   0.0000       0.215211         5.8562
  22   0.0000       0.339208         9.2303

                 SPIN DOWN ORBITALS
  NO   OCC          E(Eh)            E(eV)
   0   1.0000    -432.583252    -11771.1887
   1   1.0000     -56.309218     -1532.2517
   2   1.0000     -50.150644     -1364.6684
   3   1.0000     -50.150644     -1364.6684
   4   1.0000     -50.150644     -1364.6684
   5   1.0000      -8.022327      -218.2986
   6   1.0000      -5.870346      -159.7402
   7   1.0000      -5.870346      -159.7402
   8   1.0000      -5.870346      -159.7402
   9   1.0000      -2.107604       -57.3508
  10   1.0000      -2.107604       -57.3508
  11   1.0000      -2.107604       -57.3508
  12   1.0000      -2.107604       -57.3508
  13   1.0000      -2.107604       -57.3508
  14   1.0000      -0.555997       -15.1294
  15   0.0000       0.038116         1.0372
  16   0.0000       0.038116         1.0372
  17   0.0000       0.038116         1.0372
  18   0.0000       0.251680         6.8486
  19   0.0000       0.274799         7.4777

E(0)                                       ...  -2234.239136788
E(0)                                       ...  -2234.239136788
E(CORR)                                    ...     -0.253475671
E(TOT)                                     ...  -2234.492612460
E(CCSD(T))                                 ...  -2234.500305884

MULLIKEN ATOMIC CHARGES AND SPIN DENSITIES
------------------------------------------
   0 As:   -0.000000    3.000000
Sum of atomic charges       :   -0.0000000

LOEWDIN ATOMIC CHARGES AND SPIN DENSITIES
-----------------------------------------
   0 As:   -0.000000    3.000000

FINAL SINGLE POINT ENERGY     -2234.500305883856

DIPOLE MOMENT
-------------
                                X             Y             Z
Electronic contribution:      0.00000      -0.00000      -0.00000
Nuclear contribution   :      0.00000       0.00000       0.00000
                        -----------------------------------------
Total Dipole Moment    :      0.00000      -0.00000      -0.00000
                        -----------------------------------------
Magnitude (a.u.)       :      0.00000
Magnitude (Debye)      :      0.00000

Rotational constants in cm-1:     0.000000     0.000000     0.000000
Rotational constants in MHz :     0.000000     0.000000     0.000000

                             ****ORCA TERMINATED NORMALLY****
TOTAL RUN TIME: 0 days 0 hours 0 minutes 18 seconds 856 msec
