                         Program Version 4.2.0 -  RELEASE  -
|  1> #
|  2> # 34_Se CCSD(T)/Def2-QZVP
|  3> #
|  4> ! CCSD(T) Def2-QZVP tightscf
|  5>
|  6> *xyz 0 3
|  7>  Se 0.0 0.0 0.0
|  8> *
|  9>
| 10> %maxcore 5000
| 11>
| 12> %pal
| 13> nprocs 24
| 14> end
| 15>
| 16>
| 17>                          ****END OF INPUT****

CARTESIAN COORDINATES (ANGSTROEM)
---------------------------------
  Se     0.000000    0.000000    0.000000

 Total Charge           Charge          ....    0
 Multiplicity           Mult            ....    3
 Number of Electrons    NEL             ....   34
 Basis Dimension        Dim             ....   75

ORBITAL ENERGIES
----------------
                 SPIN UP ORBITALS
  NO   OCC          E(Eh)            E(eV)
   0   1.0000    -460.870811    -12540.9323
   1   1.0000     -60.670332     -1650.9237
   2   1.0000     -54.274732     -1476.8905
   3   1.0000     -54.274732     -1476.8905
   4   1.0000     -54.268413     -1476.7186
   5   1.0000      -8.937842      -243.2111
   6   1.0000      -6.676526      -181.6775
   7   1.0000      -6.676526      -181.6775
   8   1.0000      -6.656540      -181.1337
   9   1.0000      -2.662731       -72.4566
  10   1.0000      -2.662731       -72.4566
  11   1.0000      -2.648626       -72.0728
  12   1.0000      -2.648626       -72.0728
  13   1.0000      -2.644016       -71.9473
  14   1.0000      -0.936218       -25.4758
  15   1.0000      -0.447815       -12.1857
  16   1.0000      -0.447815       -12.1857
  17   1.0000      -0.384139       -10.4529
  18   0.0000       0.237505         6.4628
  19   0.0000       0.237505         6.4628
  20   0.0000       0.256742         6.9863
  21   0.0000       0.258370         7.0306
  22   0.0000       0.369722        10.0607

                 SPIN DOWN ORBITALS
  NO   OCC          E(Eh)            E(eV)
   0   1.0000    -460.863748    -12540.7402
   1   1.0000     -60.666932     -1650.8311
   2   1.0000     -54.266352     -1476.6625
   3   1.0000     -54.264181     -1476.6034
   4   1.0000     -54.264181     -1476.6034
   5   1.0000      -8.924721      -242.8540
   6   1.0000      -6.653775      -181.0584
   7   1.0000      -6.650647      -180.9733
   8   1.0000      -6.650647      -180.9733
   9   1.0000      -2.649376       -72.0932
  10   1.0000      -2.649376       -72.0932
  11   1.0000      -2.641856       -71.8886
  12   1.0000      -2.641856       -71.8886
  13   1.0000      -2.639489       -71.8241
  14   1.0000      -0.741674       -20.1820
  15   1.0000      -0.348864        -9.4931
  16   0.0000      -0.000545        -0.0148
  17   0.0000      -0.000545        -0.0148
  18   0.0000       0.265028         7.2118
  19   0.0000       0.284663         7.7461
  20   0.0000       0.289626         7.8811

E(0)                                       ...  -2399.874609337
E(0)                                       ...  -2399.874609337
E(CORR)                                    ...     -0.285791181
E(TOT)                                     ...  -2400.160400518
E(CCSD(T))                                 ...  -2400.168321124

MULLIKEN ATOMIC CHARGES AND SPIN DENSITIES
------------------------------------------
   0 Se:    0.000000    2.000000
Sum of atomic charges       :    0.0000000

LOEWDIN ATOMIC CHARGES AND SPIN DENSITIES
-----------------------------------------
   0 Se:   -0.000000    2.000000

FINAL SINGLE POINT ENERGY     -2400.168321123956

DIPOLE MOMENT
-------------
                                X             Y             Z
Electronic contribution:     -0.00000      -0.00000      -0.00000
Nuclear contribution   :      0.00000       0.00000       0.00000
                        -----------------------------------------
Total Dipole Moment    :     -0.00000      -0.00000      -0.00000
                        -----------------------------------------
Magnitude (a.u.)       :      0.00000
Magnitude (Debye)      :      0.00000

Rotational constants in cm-1:     0.000000     0.000000     0.000000
Rotational constants in MHz :     0.000000     0.000000     0.000000

                             ****ORCA TERMINATED NORMALLY****
TOTAL RUN TIME: 0 days 0 hours 0 minutes 24 seconds 871 msec
