                         Program Version 4.2.0 -  RELEASE  -
|  1> #
|  2> # 35_Br CCSD(T)/Def2-QZVP
|  3> #
|  4> ! CCSD(T) Def2-QZVP tightscf
|  5>
|  6> *xyz 0 2
|  7>  Br 0.0 0.0 0.0
|  8> *
|  9>
| 10> %maxcore 5000
| 11>
| 12> %pal
| 13> nprocs 24
| 14> end
| 15>
| 16>
| 17>                          ****END OF INPUT****

CARTESIAN COORDINATES (ANGSTROEM)
---------------------------------
  Br     0.000000    0.000000    0.000000

 Total Charge           Charge          ....    0
 Multiplicity           Mult            ....    2
 Number of Electrons    NEL             ....   35
 Basis Dimension        Dim             ....   75

ORBITAL ENERGIES
----------------
                 SPIN UP ORBITALS
  NO   OCC          E(Eh)            E(eV)
   0   1.0000    -490.062452    -13335.2773
   1   1.0000     -65.200931     -1774.2075
   2   1.0000     -58.561662     -1593.5438
   3   1.0000     -58.554046     -1593.3366
   4   1.0000     -58.554046     -1593.3366
   5   1.0000      -9.875264      -268.7196
   6   1.0000      -7.498695      -204.0499
   7   1.0000      -7.475398      -203.4159
   8   1.0000      -7.475398      -203.4159
   9   1.0000      -3.233181       -87.9793
  10   1.0000      -3.227693       -87.8300
  11   1.0000      -3.227693       -87.8300
  12   1.0000      -3.211451       -87.3880
  13   1.0000      -3.211451       -87.3880
  14   1.0000      -1.047834       -28.5130
  15   1.0000      -0.523846       -14.2546
  16   1.0000      -0.454135       -12.3576
  17   1.0000      -0.454135       -12.3576
  18   0.0000       0.246708         6.7133
  19   0.0000       0.266569         7.2537
  20   0.0000       0.266569         7.2537
  21   0.0000       0.313946         8.5429
  22   0.0000       0.422897        11.5076

                 SPIN DOWN ORBITALS
  NO   OCC          E(Eh)            E(eV)
   0   1.0000    -490.058063    -13335.1578
   1   1.0000     -65.198545     -1774.1426
   2   1.0000     -58.552615     -1593.2977
   3   1.0000     -58.552615     -1593.2977
   4   1.0000     -58.549626     -1593.2163
   5   1.0000      -9.867058      -268.4963
   6   1.0000      -7.473303      -203.3589
   7   1.0000      -7.473303      -203.3589
   8   1.0000      -7.469216      -203.2477
   9   1.0000      -3.222418       -87.6865
  10   1.0000      -3.219490       -87.6068
  11   1.0000      -3.219490       -87.6068
  12   1.0000      -3.211044       -87.3769
  13   1.0000      -3.211044       -87.3769
  14   1.0000      -0.940870       -25.6024
  15   1.0000      -0.434074       -11.8117
  16   1.0000      -0.434074       -11.8117
  17   0.0000      -0.047049        -1.2803
  18   0.0000       0.269589         7.3359
  19   0.0000       0.269589         7.3359
  20   0.0000       0.289925         7.8892
  21   0.0000       0.329015         8.9529

E(0)                                       ...  -2572.447645028
E(0)                                       ...  -2572.447645028
E(CORR)                                    ...     -0.324984502
E(TOT)                                     ...  -2572.772629531
E(CCSD(T))                                 ...  -2572.781316853

MULLIKEN ATOMIC CHARGES AND SPIN DENSITIES
------------------------------------------
   0 Br:    0.000000    1.000000
Sum of atomic charges       :    0.0000000

LOEWDIN ATOMIC CHARGES AND SPIN DENSITIES
-----------------------------------------
   0 Br:   -0.000000    1.000000

FINAL SINGLE POINT ENERGY     -2572.781316853107

DIPOLE MOMENT
-------------
                                X             Y             Z
Electronic contribution:     -0.00000      -0.00000      -0.00000
Nuclear contribution   :      0.00000       0.00000       0.00000
                        -----------------------------------------
Total Dipole Moment    :     -0.00000      -0.00000      -0.00000
                        -----------------------------------------
Magnitude (a.u.)       :      0.00000
Magnitude (Debye)      :      0.00000

Rotational constants in cm-1:     0.000000     0.000000     0.000000
Rotational constants in MHz :     0.000000     0.000000     0.000000

                             ****ORCA TERMINATED NORMALLY****
TOTAL RUN TIME: 0 days 0 hours 0 minutes 20 seconds 68 msec
