                         Program Version 4.2.0 -  RELEASE  -
|  1> #
|  2> # 36_Kr CCSD(T)/Def2-QZVP
|  3> #
|  4> ! CCSD(T) Def2-QZVP tightscf
|  5>
|  6> *xyz 0 1
|  7>  Kr 0.0 0.0 0.0
|  8> *
|  9>
| 10> %maxcore 5000
| 11>
| 12> %pal
| 13> nprocs 24
| 14> end
| 15>
| 16>
| 17>                          ****END OF INPUT****

CARTESIAN COORDINATES (ANGSTROEM)
---------------------------------
  Kr     0.000000    0.000000    0.000000

 Total Charge           Charge          ....    0
 Multiplicity           Mult            ....    1
 Number of Electrons    NEL             ....   36
 Basis Dimension        Dim             ....   75

ORBITAL ENERGIES
----------------

  NO   OCC          E(Eh)            E(eV)
   0   2.0000    -520.166126    -14154.4399
   1   2.0000     -69.903586     -1902.1733
   2   2.0000     -63.010369     -1714.5993
   3   2.0000     -63.010369     -1714.5993
   4   2.0000     -63.010369     -1714.5993
   5   2.0000     -10.849387      -295.2268
   6   2.0000      -8.331450      -226.7103
   7   2.0000      -8.331450      -226.7103
   8   2.0000      -8.331450      -226.7103
   9   2.0000      -3.825172      -104.0882
  10   2.0000      -3.825172      -104.0882
  11   2.0000      -3.825172      -104.0882
  12   2.0000      -3.825172      -104.0882
  13   2.0000      -3.825172      -104.0882
  14   2.0000      -1.152862       -31.3710
  15   2.0000      -0.524117       -14.2620
  16   2.0000      -0.524117       -14.2620
  17   2.0000      -0.524117       -14.2620
  18   0.0000       0.298341         8.1183
  19   0.0000       0.298341         8.1183
  20   0.0000       0.298341         8.1183
  21   0.0000       0.372332        10.1317
  22   0.0000       0.510864        13.9013

E(0)                                       ...  -2752.054295774
E(0)                                       ...  -2752.054295774
E(CORR)                                    ...     -0.367081426
E(TOT)                                     ...  -2752.421377200
E(CCSD(T))                                 ...  -2752.430965568

MULLIKEN ATOMIC CHARGES
-----------------------
   0 Kr:   -0.000000
Sum of atomic charges:   -0.0000000

LOEWDIN ATOMIC CHARGES
----------------------
   0 Kr:   -0.000000

FINAL SINGLE POINT ENERGY     -2752.430965567777

DIPOLE MOMENT
-------------
                                X             Y             Z
Electronic contribution:     -0.00000       0.00000       0.00000
Nuclear contribution   :      0.00000       0.00000       0.00000
                        -----------------------------------------
Total Dipole Moment    :     -0.00000       0.00000       0.00000
                        -----------------------------------------
Magnitude (a.u.)       :      0.00000
Magnitude (Debye)      :      0.00000

Rotational constants in cm-1:     0.000000     0.000000     0.000000
Rotational constants in MHz :     0.000000     0.000000     0.000000

                             ****ORCA TERMINATED NORMALLY****
TOTAL RUN TIME: 0 days 0 hours 0 minutes 8 seconds 908 msec
