                         Program Version 4.2.0 -  RELEASE  -
|  1> # input to generate an atomic fitting density for Sr
|  2> # this file is use internally by ORCA
|  3> #
|  4> # atomic ground state (S=1): 1s2 2s2 2p6 3s2 3p6 4s2 3d10 4p6 5s2
|  5> #
|  6> ! RHF AllowRHF def2-SVP def2/J  NoMulliken NoLoewdin NoMayer NoPrintMOs
|  7>
|  8> %output print[p_atomdensfit] 2 end
|  9>
| 10> %scf
| 11>   guess hcore
| 12>   maxiter 1000
| 13>   maxdisk 500000
| 14>   SCFMode Conventional
| 15>   lshift 1.000000
| 16>   hftyp rohf
| 17>   rohf_case sahf
| 18>   rohf_numop   2
| 19>   rohf_norb[1] 1
| 20>   rohf_nel[1]  2
| 21> end
| 22>
| 23> %basis
| 24>   NewECP 38
| 25>     N_core 28
| 26>     lmax f
| 27>     s 3
| 28>       1       7.4000740000    135.4794300000  2
| 29>       2       3.6063790000     17.5344630000  2
| 30>       3       4.6339750000     15.8059920000  2
| 31>     p 3
| 32>       1       6.4848680000     88.3597090000  2
| 33>       2       3.2880530000     15.3943720000  2
| 34>       3       4.6339750000     15.8059920000  2
| 35>     d 3
| 36>       1       4.6228410000     29.8889870000  2
| 37>       2       2.2469040000      6.6594140000  2
| 38>       3       4.6339750000     15.8059920000  2
| 39>     f 1
| 40>       1       4.6339750000    -15.8059920000  2
| 41>   end
| 42>   NewGTO 38
| 43>     s 2
| 44>      1      11.0000000000     -2.4957994342
| 45>      2       9.9000000000      3.4775955373
| 46>     s 1
| 47>      1       2.8771178206      1.0000000000
| 48>     s 1
| 49>      1       0.6336498783      1.0000000000
| 50>     s 1
| 51>      1       0.2858873973      1.0000000000
| 52>     s 1
| 53>      1       0.0619385408      1.0000000000
| 54>     s 1
| 55>      1       0.0312375189      1.0000000000
| 56>     s 1
| 57>      1       0.0162661391      1.0000000000
| 58>     p 4
| 59>      1       7.6233499793      0.0706751291
| 60>      2       3.6643075442     -0.4369238792
| 61>      3       0.9780964823      0.5501105216
| 62>      4       0.7781525336      0.6266306812
| 63>     p 1
| 64>      1       0.4066631683      1.0000000000
| 65>     p 1
| 66>      1       0.1872545593      1.0000000000
| 67>     p 1
| 68>      1       0.0563045944      1.0000000000
| 69>     p 1
| 70>      1       0.0218267017      1.0000000000
| 71>   end
| 72>   NewAuxGTO 38
| 73>     S 1
| 74>      1 1310.72 1.0
| 75>     S 1
| 76>      1  655.36 1.0
| 77>     S 1
| 78>      1  327.68 1.0
| 79>     S 1
| 80>      1  163.84 1.0
| 81>     S 1
| 82>      1   81.82 1.0
| 83>     S 1
| 84>      1   40.96 1.0
| 85>     S 1
| 86>      1   20.48 1.0
| 87>     S 1
| 88>      1   10.24 1.0
| 89>     S 1
| 90>      1    5.12 1.0
| 91>     S 1
| 92>      1    2.56 1.0
| 93>     S 1
| 94>      1    1.28 1.0
| 95>     S 1
| 96>      1    0.64 1.0
| 97>     S 1
| 98>      1    0.32 1.0
| 99>     S 1
|100>      1    0.16 1.0
|101>     S 1
|102>      1    0.08 1.0
|103>     S 1
|104>      1    0.04 1.0
|105>     S 1
|106>      1    0.02 1.0
|107>     S 1
|108>      1    0.01 1.0
|109>   end
|110> end
|111>
|112> * xyz 0 1
|113> 38  0.0 0.0 0.0
|114> *
|115>
|116>
|117>                          ****END OF INPUT****

CARTESIAN COORDINATES (ANGSTROEM)
---------------------------------
  Sr     0.000000    0.000000    0.000000

 Total Charge           Charge          ....    0
 Multiplicity           Mult            ....    1
 Number of Electrons    NEL             ....   10
 Basis Dimension        Dim             ....   22

ORBITAL ENERGIES
----------------

  NO   OCC          E(Eh)            E(eV)
   0   2.0000      -1.855815       -50.4993
   1   2.0000      -1.100827       -29.9550
   2   2.0000      -1.100827       -29.9550
   3   2.0000      -1.100827       -29.9550
   4   2.0000      -0.285630        -7.7724
   5   0.0000       0.020124         0.5476
   6   0.0000       0.020124         0.5476
   7   0.0000       0.020124         0.5476
   8   0.0000       0.043418         1.1815
   9   0.0000       0.138619         3.7720

--------------------------
ATOM BASIS FOR ELEMENT Sr
--------------------------
 NewGTO Sr
 S 8
    1         11.000000000000        -0.271332625133
    2          9.900000000000         0.378069292490
    3          2.877117820600        -0.562029637045
    4          0.633649878300         0.836441844472
    5          0.285887397300         0.531980926207
    6          0.061938540800        -0.108622832970
    7          0.031237518900        -0.137549177480
    8          0.016266139100        -0.032333356452
 S 8
    1         11.000000000000        -0.009718762756
    2          9.900000000000         0.013541923893
    3          2.877117820600        -0.030476961110
    4          0.633649878300         0.101979931409
    5          0.285887397300         0.217125210527
    6          0.061938540800        -0.507010505348
    7          0.031237518900        -0.509851826684
    8          0.016266139100        -0.141596002620
 S 8
    1         11.000000000000         0.034461379326
    2          9.900000000000        -0.048017776313
    3          2.877117820600         0.074204325621
    4          0.633649878300        -0.180446609025
    5          0.285887397300         0.002215714408
    6          0.061938540800        -0.985434515676
    7          0.031237518900         3.993258965526
    8          0.016266139100        -3.345159318336
 S 8
    1         11.000000000000         0.063667080090
    2          9.900000000000        -0.088712398344
    3          2.877117820600         0.148806946315
    4          0.633649878300        -0.107144930250
    5          0.285887397300        -1.037678431326
    6          0.061938540800         5.449201829863
    7          0.031237518900        -7.383335736847
    8          0.016266139100         3.011859299367
 S 8
    1         11.000000000000        -0.407436918204
    2          9.900000000000         0.567714211752
    3          2.877117820600        -0.879012588844
    4          0.633649878300         3.868123068969
    5          0.285887397300        -4.475843168226
    6          0.061938540800         3.794067832247
    7          0.031237518900        -3.567170772257
    8          0.016266139100         1.254602494162
 S 8
    1         11.000000000000        -3.347180507574
    2          9.900000000000         4.663892393023
    3          2.877117820600        -2.711712220346
    4          0.633649878300         2.110951768107
    5          0.285887397300        -1.502119003868
    6          0.061938540800         0.914520154573
    7          0.031237518900        -0.854352207160
    8          0.016266139100         0.304977253457
 S 8
    1         11.000000000000        -4.248671777391
    2          9.900000000000         5.920011764585
    3          2.877117820600        -1.150543661328
    4          0.633649878300         0.668917010976
    5          0.285887397300        -0.461937356221
    6          0.061938540800         0.280462086224
    7          0.031237518900        -0.262678008925
    8          0.016266139100         0.093965986697
 P 8
    1          7.623349979300        -0.027250889949
    2          3.664307544200         0.168468946571
    3          0.978096482300        -0.212111409981
    4          0.778152533600        -0.241616024613
    5          0.406663168300        -0.493349410339
    6          0.187254559300        -0.186916669248
    7          0.056304594400        -0.010391948916
    8          0.021826701700         0.000788550714
 P 8
    1          7.623349979300        -0.004052969348
    2          3.664307544200         0.025056043225
    3          0.978096482300        -0.031546897901
    4          0.778152533600        -0.035935059129
    5          0.406663168300        -0.134618087549
    6          0.187254559300         0.035789273506
    7          0.056304594400         0.035130427527
    8          0.021826701700         0.971084449214
 P 8
    1          7.623349979300        -0.007827528245
    2          3.664307544200         0.048390912743
    3          0.978096482300        -0.060926746092
    4          0.778152533600        -0.069401632778
    5          0.406663168300        -0.097647040104
    6          0.187254559300        -0.360375560140
    7          0.056304594400         1.871631951503
    8          0.021826701700        -1.346785757021
 P 8
    1          7.623349979300        -0.015416701839
    2          3.664307544200         0.095308282528
    3          0.978096482300        -0.119998222827
    4          0.778152533600        -0.136689928951
    5          0.406663168300        -1.462561431181
    6          0.187254559300         2.625667706341
    7          0.056304594400        -1.597601236253
    8          0.021826701700         0.625314206006
 P 8
    1          7.623349979300        -0.201700158482
    2          3.664307544200         1.246939578341
    3          0.978096482300        -1.569963589769
    4          0.778152533600        -1.788344914500
    5          0.406663168300         4.582029829357
    6          0.187254559300        -2.698694735149
    7          0.056304594400         0.966579429615
    8          0.021826701700        -0.361711679154
 end
  // -----------------------------------------------
  // The basis set
  // -----------------------------------------------
  BAS[ATNO] = new BFNGauss[NSH];
  // Basis function   1 L = s
  InitBFNGauss(BAS[ATNO][  0]);
  BAS[ATNO][  0].l  = 0;
  BAS[ATNO][  0].ng = 8;
  BAS[ATNO][  0].a[  0] =        11.000000000000;     BAS[ATNO][  0].d[  0] =        -0.271332625133;
  BAS[ATNO][  0].a[  1] =         9.900000000000;     BAS[ATNO][  0].d[  1] =         0.378069292490;
  BAS[ATNO][  0].a[  2] =         2.877117820600;     BAS[ATNO][  0].d[  2] =        -0.562029637045;
  BAS[ATNO][  0].a[  3] =         0.633649878300;     BAS[ATNO][  0].d[  3] =         0.836441844472;
  BAS[ATNO][  0].a[  4] =         0.285887397300;     BAS[ATNO][  0].d[  4] =         0.531980926207;
  BAS[ATNO][  0].a[  5] =         0.061938540800;     BAS[ATNO][  0].d[  5] =        -0.108622832970;
  BAS[ATNO][  0].a[  6] =         0.031237518900;     BAS[ATNO][  0].d[  6] =        -0.137549177480;
  BAS[ATNO][  0].a[  7] =         0.016266139100;     BAS[ATNO][  0].d[  7] =        -0.032333356452;

FINAL SINGLE POINT ENERGY       -30.347155392855

DIPOLE MOMENT
-------------
                                X             Y             Z
Electronic contribution:     -0.00000       0.00000      -0.00000
Nuclear contribution   :      0.00000       0.00000       0.00000
                        -----------------------------------------
Total Dipole Moment    :     -0.00000       0.00000      -0.00000
                        -----------------------------------------
Magnitude (a.u.)       :      0.00000
Magnitude (Debye)      :      0.00000

Rotational constants in cm-1:     0.000000     0.000000     0.000000
Rotational constants in MHz :     0.000000     0.000000     0.000000

                             ****ORCA TERMINATED NORMALLY****
TOTAL RUN TIME: 0 days 0 hours 0 minutes 1 seconds 26 msec
