                         Program Version 4.2.0 -  RELEASE  -
|  1> #
|  2> # 39_Y CCSD(T)/Def2-QZVP
|  3> #
|  4> ! CCSD(T) Def2-QZVP tightscf
|  5>
|  6> *xyz 0 2
|  7>  Y 0.0 0.0 0.0
|  8> *
|  9>
| 10> %maxcore 5000
| 11>
| 12> %pal
| 13> nprocs 24
| 14> end
| 15>
| 16>
| 17>                          ****END OF INPUT****

CARTESIAN COORDINATES (ANGSTROEM)
---------------------------------
   Y     0.000000    0.000000    0.000000

 Total Charge           Charge          ....    0
 Multiplicity           Mult            ....    2
 Number of Electrons    NEL             ....   11
 Basis Dimension        Dim             ....   72

ORBITAL ENERGIES
----------------
                 SPIN UP ORBITALS
  NO   OCC          E(Eh)            E(eV)
   0   1.0000      -2.269591       -61.7587
   1   1.0000      -1.332723       -36.2652
   2   1.0000      -1.332723       -36.2652
   3   1.0000      -1.308769       -35.6134
   4   1.0000      -0.238273        -6.4837
   5   1.0000      -0.210851        -5.7375
   6   0.0000       0.017664         0.4807
   7   0.0000       0.017664         0.4807
   8   0.0000       0.024980         0.6797
   9   0.0000       0.058693         1.5971
  10   0.0000       0.079758         2.1703

                 SPIN DOWN ORBITALS
  NO   OCC          E(Eh)            E(eV)
   0   1.0000      -2.241482       -60.9938
   1   1.0000      -1.305449       -35.5231
   2   1.0000      -1.271662       -34.6037
   3   1.0000      -1.271661       -34.6037
   4   1.0000      -0.195822        -5.3286
   5   0.0000       0.014314         0.3895
   6   0.0000       0.028249         0.7687
   7   0.0000       0.028249         0.7687
   8   0.0000       0.058415         1.5896
   9   0.0000       0.084998         2.3129

E(0)                                       ...    -37.820520498
E(0)                                       ...    -37.820520498
E(CORR)                                    ...     -0.273164139
E(TOT)                                     ...    -38.093684637
E(CCSD(T))                                 ...    -38.104192181

MULLIKEN ATOMIC CHARGES AND SPIN DENSITIES
------------------------------------------
   0  Y:   -0.000000    1.000000
Sum of atomic charges       :   -0.0000000

LOEWDIN ATOMIC CHARGES AND SPIN DENSITIES
-----------------------------------------
   0  Y:   -0.000000    1.000000

FINAL SINGLE POINT ENERGY       -38.104192181066

DIPOLE MOMENT
-------------
                                X             Y             Z
Electronic contribution:      0.00000      -0.00000       0.00000
Nuclear contribution   :      0.00000       0.00000       0.00000
                        -----------------------------------------
Total Dipole Moment    :      0.00000      -0.00000       0.00000
                        -----------------------------------------
Magnitude (a.u.)       :      0.00000
Magnitude (Debye)      :      0.00000

Rotational constants in cm-1:     0.000000     0.000000     0.000000
Rotational constants in MHz :     0.000000     0.000000     0.000000

                             ****ORCA TERMINATED NORMALLY****
TOTAL RUN TIME: 0 days 0 hours 0 minutes 23 seconds 150 msec
