                         Program Version 4.2.0 -  RELEASE  -
|  1> #
|  2> # 40_Zr CCSD(T)/Def2-QZVP
|  3> #
|  4> ! CCSD(T) Def2-QZVP verytightscf slowconv kdiis
|  5>
|  6> *xyz 0 3
|  7>  Zr 0.0 0.0 0.0
|  8> *
|  9>
| 10> %maxcore 5000
| 11>
| 12> %pal
| 13> nprocs 24
| 14> end
| 15>
| 16> %mdci
| 17> maxiter 100
| 18> maxdiis 25
| 19> end
| 20>
| 21>
| 22>                          ****END OF INPUT****

CARTESIAN COORDINATES (ANGSTROEM)
---------------------------------
  Zr     0.000000    0.000000    0.000000

 Total Charge           Charge          ....    0
 Multiplicity           Mult            ....    3
 Number of Electrons    NEL             ....   12
 Basis Dimension        Dim             ....   72

ORBITAL ENERGIES
----------------
                 SPIN UP ORBITALS
  NO   OCC          E(Eh)            E(eV)
   0   1.0000      -2.413418       -65.6724
   1   1.0000      -1.443947       -39.2918
   2   1.0000      -1.416217       -38.5372
   3   1.0000      -1.416215       -38.5372
   4   1.0000      -0.197190        -5.3658
   5   1.0000      -0.197190        -5.3658
   6   1.0000      -0.163481        -4.4485
   7   0.0000      -0.003407        -0.0927
   8   0.0000       0.031885         0.8676
   9   0.0000       0.037880         1.0308
  10   0.0000       0.037880         1.0308
  11   0.0000       0.112815         3.0699

                 SPIN DOWN ORBITALS
  NO   OCC          E(Eh)            E(eV)
   0   1.0000      -2.346409       -63.8490
   1   1.0000      -1.332763       -36.2663
   2   1.0000      -1.332762       -36.2663
   3   1.0000      -1.315686       -35.8016
   4   1.0000      -0.096188        -2.6174
   5   0.0000       0.011975         0.3258
   6   0.0000       0.038292         1.0420
   7   0.0000       0.038293         1.0420
   8   0.0000       0.038402         1.0450
   9   0.0000       0.118323         3.2197

E(0)                                       ...    -46.302276388
E(0)                                       ...    -46.302276388
E(CORR)                                    ...     -0.318695366
E(TOT)                                     ...    -46.620971754
E(CCSD(T))                                 ...    -46.651614041

MULLIKEN ATOMIC CHARGES AND SPIN DENSITIES
------------------------------------------
   0 Zr:   -0.000000    2.000000
Sum of atomic charges       :   -0.0000000

LOEWDIN ATOMIC CHARGES AND SPIN DENSITIES
-----------------------------------------
   0 Zr:   -0.000000    2.000000

FINAL SINGLE POINT ENERGY       -46.651614041181

DIPOLE MOMENT
-------------
                                X             Y             Z
Electronic contribution:     -0.00000       0.00000      -0.00000
Nuclear contribution   :      0.00000       0.00000       0.00000
                        -----------------------------------------
Total Dipole Moment    :     -0.00000       0.00000      -0.00000
                        -----------------------------------------
Magnitude (a.u.)       :      0.00000
Magnitude (Debye)      :      0.00000

Rotational constants in cm-1:     0.000000     0.000000     0.000000
Rotational constants in MHz :     0.000000     0.000000     0.000000

                             ****ORCA TERMINATED NORMALLY****
TOTAL RUN TIME: 0 days 0 hours 0 minutes 29 seconds 15 msec
