                         Program Version 4.2.0 -  RELEASE  -
|  1> # input to generate an atomic fitting density for Mo
|  2> # this file is use internally by ORCA
|  3> #
|  4> # atomic ground state (S=5): 1s2 2s2 2p6 3s2 3p6 4s2 3d10 4p6 5s2 4d4
|  5> #
|  6> ! RHF AllowRHF def2-SVP def2/J  NoMulliken NoLoewdin NoMayer NoPrintMOs
|  7>
|  8> %output print[p_atomdensfit] 2 end
|  9>
| 10> %scf
| 11>   guess hcore
| 12>   maxiter 1000
| 13>   maxdisk 500000
| 14>   SCFMode Conventional
| 15>   lshift 0.600000
| 16>   hftyp rohf
| 17>   rohf_case sahf
| 18>   rohf_numop   2
| 19>   rohf_norb[1] 5
| 20>   rohf_nel[1]  4
| 21> end
| 22>
| 23> %basis
| 24>   NewECP 42
| 25>     N_core 28
| 26>     lmax f
| 27>     s 4
| 28>       1       9.7145938000    180.1031085000  2
| 29>       2       4.6805004000     24.9972279000  2
| 30>       3       9.4500000000     24.8051771000  2
| 31>       4       4.7200000000      4.1537815000  2
| 32>     p 4
| 33>       1       8.1421366000    123.7727523000  2
| 34>       2       4.6259863000     19.5302280000  2
| 35>       3       9.4500000000     24.8051771000  2
| 36>       4       4.7200000000      4.1537815000  2
| 37>     d 4
| 38>       1       6.6184148000     48.3750223000  2
| 39>       2       3.2487516000      8.8920527000  2
| 40>       3       9.4500000000     24.8051771000  2
| 41>       4       4.7200000000      4.1537815000  2
| 42>     f 2
| 43>       1       9.4500000000    -24.8051771000  2
| 44>       2       4.7200000000     -4.1537815000  2
| 45>   end
| 46>   NewGTO 42
| 47>     s 3
| 48>      1      15.0000000000      0.3905248459
| 49>      2      13.5000000000     -4.5717269160
| 50>      3      12.5717641110      5.1666755538
| 51>     s 1
| 52>      1       4.1304342348      1.0000000000
| 53>     s 1
| 54>      1       0.9647811333      1.0000000000
| 55>     s 1
| 56>      1       0.4373664898      1.0000000000
| 57>     s 1
| 58>      1       0.1131860551      1.0000000000
| 59>     s 1
| 60>      1       0.0575794237      1.0000000000
| 61>     s 1
| 62>      1       0.0270181515      1.0000000000
| 63>     p 4
| 64>      1       9.1087343439      0.1025151118
| 65>      2       5.3495476626     -0.3868437403
| 66>      3       1.4870196599      0.5376861063
| 67>      4       0.9058547384      0.6208376183
| 68>     p 1
| 69>      1       0.5014124021      1.0000000000
| 70>     p 1
| 71>      1       0.2328631815      1.0000000000
| 72>     p 1
| 73>      1       0.0620000000      1.0000000000
| 74>     p 1
| 75>      1       0.0210000000      1.0000000000
| 76>     d 4
| 77>      1      17.2153771370      0.0041041472
| 78>      2       5.8496916871     -0.0393756617
| 79>      3       1.8232967249      0.3457661447
| 80>      4       0.8697023311      0.7177836027
| 81>     d 1
| 82>      1       0.3946169759      1.0000000000
| 83>     d 1
| 84>      1       0.1708414124      1.0000000000
| 85>     d 1
| 86>      1       0.0692728196      1.0000000000
| 87>   end
| 88>   NewAuxGTO 42
| 89>     S 1
| 90>      1 1310.72 1.0
| 91>     S 1
| 92>      1  655.36 1.0
| 93>     S 1
| 94>      1  327.68 1.0
| 95>     S 1
| 96>      1  163.84 1.0
| 97>     S 1
| 98>      1   81.82 1.0
| 99>     S 1
|100>      1   40.96 1.0
|101>     S 1
|102>      1   20.48 1.0
|103>     S 1
|104>      1   10.24 1.0
|105>     S 1
|106>      1    5.12 1.0
|107>     S 1
|108>      1    2.56 1.0
|109>     S 1
|110>      1    1.28 1.0
|111>     S 1
|112>      1    0.64 1.0
|113>     S 1
|114>      1    0.32 1.0
|115>     S 1
|116>      1    0.16 1.0
|117>     S 1
|118>      1    0.08 1.0
|119>     S 1
|120>      1    0.04 1.0
|121>     S 1
|122>      1    0.02 1.0
|123>     S 1
|124>      1    0.01 1.0
|125>   end
|126> end
|127>
|128> * xyz 0 5
|129> 42  0.0 0.0 0.0
|130> *
|131>
|132>
|133>                          ****END OF INPUT****

CARTESIAN COORDINATES (ANGSTROEM)
---------------------------------
  Mo     0.000000    0.000000    0.000000

 Total Charge           Charge          ....    0
 Multiplicity           Mult            ....    5
 Number of Electrons    NEL             ....   14
 Basis Dimension        Dim             ....   42

ORBITAL ENERGIES
----------------

  NO   OCC          E(Eh)            E(eV)
   0   2.0000      -3.069875       -83.5355
   1   2.0000      -1.906774       -51.8860
   2   2.0000      -1.906766       -51.8858
   3   2.0000      -1.906655       -51.8827
   4   2.0000      -0.233907        -6.3649
   5   0.8000      -0.444102       -12.0846
   6   0.8000      -0.444085       -12.0842
   7   0.8000      -0.443982       -12.0814
   8   0.8000      -0.443966       -12.0809
   9   0.8000      -0.443926       -12.0798
  10   0.0000      -0.023019        -0.6264
  11   0.0000      -0.023019        -0.6264
  12   0.0000      -0.022962        -0.6248
  13   0.0000       0.037693         1.0257
  14   0.0000       0.064570         1.7570

CleanUpVectors: The p-vectors have cracked symmetry
CleanUpVectors: The p-vectors have cracked symmetry
CleanUpVectors: The p-vectors have cracked symmetry
CleanUpVectors: The d-vectors have cracked symmetry at i=5
CleanUpVectors: The d-vectors have cracked symmetry at i=6
CleanUpVectors: The d-vectors have cracked symmetry at i=7
CleanUpVectors: The d-vectors have cracked symmetry at i=8
CleanUpVectors: The d-vectors have cracked symmetry at i=9
CleanUpVectors: The p-vectors have cracked symmetry
CleanUpVectors: The p-vectors have cracked symmetry
CleanUpVectors: The p-vectors have cracked symmetry
CleanUpVectors: The p-vectors have cracked symmetry
CleanUpVectors: The p-vectors have cracked symmetry
CleanUpVectors: The p-vectors have cracked symmetry
CleanUpVectors: The d-vectors have cracked symmetry at i=17
CleanUpVectors: The d-vectors have cracked symmetry at i=18
CleanUpVectors: The d-vectors have cracked symmetry at i=19
CleanUpVectors: The d-vectors have cracked symmetry at i=20
CleanUpVectors: The d-vectors have cracked symmetry at i=21
CleanUpVectors: The p-vectors have cracked symmetry
CleanUpVectors: The p-vectors have cracked symmetry
CleanUpVectors: The p-vectors have cracked symmetry
CleanUpVectors: The d-vectors have cracked symmetry at i=26
CleanUpVectors: The d-vectors have cracked symmetry at i=27
CleanUpVectors: The d-vectors have cracked symmetry at i=28
CleanUpVectors: The d-vectors have cracked symmetry at i=29
CleanUpVectors: The d-vectors have cracked symmetry at i=30
CleanUpVectors: The d-vectors have cracked symmetry at i=32
CleanUpVectors: The d-vectors have cracked symmetry at i=33
CleanUpVectors: The d-vectors have cracked symmetry at i=34
CleanUpVectors: The d-vectors have cracked symmetry at i=35
CleanUpVectors: The d-vectors have cracked symmetry at i=36
CleanUpVectors: The p-vectors have cracked symmetry
CleanUpVectors: The p-vectors have cracked symmetry
CleanUpVectors: The p-vectors have cracked symmetry
--------------------------
ATOM BASIS FOR ELEMENT Mo
--------------------------
 NewGTO Mo
 S 9
    1         15.000000000000         0.057002639520
    2         13.500000000000        -0.667308377722
    3         12.571764111000         0.754149568723
    4          4.130434234800        -0.628526959511
    5          0.964781133300         0.854187327437
    6          0.437366489800         0.436220666110
    7          0.113186055100         0.011951973975
    8          0.057579423700        -0.002607351511
    9          0.027018151500         0.000289754433
 P 24
    1          9.108734343900         0.032025403051
    2          5.349547662600        -0.120848784956
    3          1.487019659900         0.167971472367
    4          0.905854738400         0.193947746882
    5          9.108734343900         0.018091690901
    6          5.349547662600        -0.068269519034
    7          1.487019659900         0.094889920773
    8          0.905854738400         0.109564356830
    9          9.108734343900        -0.051098123973
   10          5.349547662600         0.192820249160
   11          1.487019659900        -0.268006841486
   12          0.905854738400        -0.309453279910
   13          0.501412402100         0.183873064556
   14          0.501412402100         0.103872998683
   15          0.501412402100        -0.293378622997
   16          0.232863181500         0.041276957920
   17          0.232863181500         0.023318050450
   18          0.232863181500        -0.065859440072
   19          0.062000000000         0.002005564479
   20          0.062000000000         0.001132977236
   21          0.062000000000        -0.003199977912
   22          0.021000000000        -0.000319298205
   23          0.021000000000        -0.000180376947
   24          0.021000000000         0.000509456173
 S 9
    1         15.000000000000         0.017271794204
    2         13.500000000000        -0.202194373232
    3         12.571764111000         0.228507245618
    4          4.130434234800        -0.205050274694
    5          0.964781133300         0.369762347305
    6          0.437366489800         0.299723884852
    7          0.113186055100        -0.373828210132
    8          0.057579423700        -0.557385316147
    9          0.027018151500        -0.269866655112
 D 24
    1         15.000000000000         0.000000188492
    2         13.500000000000        -0.000002451783
    3         12.571764111000         0.000002975436
    4          4.130434234800        -0.000008114072
    5          0.964781133300         0.000063733430
    6          0.437366489800         0.000123613683
    7          0.113186055100        -0.001325119408
    8          0.057579423700        -0.000320659435
    9          0.027018151500         0.001164609858
   10         17.215377137000         0.000898046887
   11          5.849691687100        -0.008615965435
   12          1.823296724900         0.075658643507
   13          0.869702331100         0.157061454815
   14         17.215377137000        -0.000750029196
   15          5.849691687100         0.007195866627
   16          1.823296724900        -0.063188450784
   17          0.869702331100        -0.131174305373
   18         17.215377137000         0.001705395173
   19          5.849691687100        -0.016361758031
   20          1.823296724900         0.143676112369
   21          0.869702331100         0.298260425838
   22         17.215377137000         0.000433325152
   23          5.849691687100        -0.004157371494
   24          1.823296724900         0.036506772243
 S 9
    1         15.000000000000         0.645557483744
    2         13.500000000000        -7.557297711643
    3         12.571764111000         8.540778147286
    4          4.130434234800        -3.173123477215
    5          0.964781133300         2.499893516841
    6          0.437366489800        -1.876981017197
    7          0.113186055100         1.176876726417
    8          0.057579423700        -0.943246132761
    9          0.027018151500         0.284801741008
 S 9
    1         15.000000000000         0.753000000283
    2         13.500000000000        -8.815086684454
    3         12.571764111000         9.962251401719
    4          4.130434234800        -1.452557933894
    5          0.964781133300         0.823624669160
    6          0.437366489800        -0.594090177673
    7          0.113186055100         0.369776356631
    8          0.057579423700        -0.297117093796
    9          0.027018151500         0.089960189662
 D 24
    1         17.215377137000        -0.000118592013
    2          5.849691687100         0.001137785449
    3          1.823296724900        -0.009991138468
    4          0.869702331100        -0.020740825770
    5         17.215377137000        -0.001042857742
    6          5.849691687100         0.010005297485
    7          1.823296724900        -0.087858666714
    8          0.869702331100        -0.182387753368
    9         17.215377137000        -0.000289203876
   10          5.849691687100         0.002774655350
   11          1.823296724900        -0.024364844725
   12          0.869702331100        -0.050579521141
   13         17.215377137000        -0.001203023767
   14          5.849691687100         0.011541948807
   15          1.823296724900        -0.101352332102
   16          0.869702331100        -0.210399552396
   17         17.215377137000         0.001377125551
   18          5.849691687100        -0.013212301406
   19          1.823296724900         0.116020057126
   20          0.869702331100         0.240848607840
   21          0.394616975900        -0.022258782343
   22          0.394616975900        -0.195736146151
   23          0.394616975900        -0.054281279086
   24          0.394616975900        -0.225798041686
 P 24
    1          9.108734343900        -0.000497226740
    2          5.349547662600         0.001876299490
    3          1.487019659900        -0.002607926824
    4          0.905854738400        -0.003011234732
    5          9.108734343900        -0.007292400828
    6          5.349547662600         0.027518085506
    7          1.487019659900        -0.038248240070
    8          0.905854738400        -0.044163213427
    9          9.108734343900        -0.002893565107
   10          5.349547662600         0.010918951647
   11          1.487019659900        -0.015176589368
   12          0.905854738400        -0.017523602501
   13          0.501412402100        -0.007239337812
   14          0.501412402100        -0.106173197807
   15          0.501412402100        -0.042128657999
   16          0.232863181500         0.006733642257
   17          0.232863181500         0.098756592091
   18          0.232863181500         0.039185809406
   19          0.062000000000         0.008980627692
   20          0.062000000000         0.131711212421
   21          0.062000000000         0.052261933683
   22          0.021000000000         0.055379879422
   23          0.021000000000         0.812209492779
   24          0.021000000000         0.322278095143
 P 24
    1          9.108734343900        -0.000957275589
    2          5.349547662600         0.003612307129
    3          1.487019659900        -0.005020857655
    4          0.905854738400        -0.005797317937
    5          9.108734343900        -0.014039545147
    6          5.349547662600         0.052978629798
    7          1.487019659900        -0.073636639826
    8          0.905854738400        -0.085024320981
    9          9.108734343900        -0.005570776884
   10          5.349547662600         0.021021487743
   11          1.487019659900        -0.029218417452
   12          0.905854738400        -0.033736956356
   13          0.501412402100        -0.005187877449
   14          0.501412402100        -0.076086176790
   15          0.501412402100        -0.030190373720
   16          0.232863181500        -0.005943128414
   17          0.232863181500        -0.087162798970
   18          0.232863181500        -0.034585486962
   19          0.062000000000         0.094870693999
   20          0.062000000000         1.391387608193
   21          0.062000000000         0.552091242493
   22          0.021000000000        -0.073576106521
   23          0.021000000000        -1.079078043563
   24          0.021000000000        -0.428169357201
 D 24
    1         17.215377137000        -0.000036979918
    2          5.849691687100         0.000354789601
    3          1.823296724900        -0.003115483710
    4          0.869702331100        -0.006467501679
    5         17.215377137000        -0.000325188798
    6          5.849691687100         0.003119898843
    7          1.823296724900        -0.027396502005
    8          0.869702331100        -0.056873005677
    9         17.215377137000        -0.000090180911
   10          5.849691687100         0.000865206061
   11          1.823296724900        -0.007597560295
   12          0.869702331100        -0.015771943795
   13         17.215377137000        -0.000375132519
   14          5.849691687100         0.003599064668
   15          1.823296724900        -0.031604160057
   16          0.869702331100        -0.065607776279
   17         17.215377137000         0.000429421755
   18          5.849691687100        -0.004119921858
   19          1.823296724900         0.036177918940
   20          0.869702331100         0.075102543707
   21          0.394616975900         0.002102344537
   22          0.394616975900         0.018487301391
   23          0.394616975900         0.005126873021
   24          0.394616975900         0.021326650829
 P 24
    1          9.108734343900        -0.001542140885
    2          5.349547662600         0.005819313248
    3          1.487019659900        -0.008088443874
    4          0.905854738400        -0.009339296983
    5          9.108734343900        -0.022617265933
    6          5.349547662600         0.085346907351
    7          1.487019659900        -0.118626312171
    8          0.905854738400        -0.136971508568
    9          9.108734343900        -0.008974346461
   10          5.349547662600         0.033864956012
   11          1.487019659900        -0.047069952131
   12          0.905854738400        -0.054349176279
   13          0.501412402100        -0.074438702719
   14          0.501412402100        -1.091729005464
   15          0.501412402100        -0.433189155815
   16          0.232863181500         0.147353017471
   17          0.232863181500         2.161101111926
   18          0.232863181500         0.857507276641
   19          0.062000000000        -0.087140714013
   20          0.062000000000        -1.278018578653
   21          0.062000000000        -0.507107337473
   22          0.021000000000         0.032877569855
   23          0.021000000000         0.482187294091
   24          0.021000000000         0.191327981419
 D 24
    1         17.215377137000        -0.000059277678
    2          5.849691687100         0.000568716881
    3          1.823296724900        -0.004994025113
    4          0.869702331100        -0.010367207410
    5         17.215377137000        -0.000521267698
    6          5.849691687100         0.005001102427
    7          1.823296724900        -0.043915754825
    8          0.869702331100        -0.091165688708
    9         17.215377137000        -0.000144557242
   10          5.849691687100         0.001386898855
   11          1.823296724900        -0.012178656799
   12          0.869702331100        -0.025281943555
   13         17.215377137000        -0.000601325955
   14          5.849691687100         0.005769190583
   15          1.823296724900        -0.050660501935
   16          0.869702331100        -0.105167258713
   17         17.215377137000         0.000688349939
   18          5.849691687100        -0.006604108728
   19          1.823296724900         0.057992097537
   20          0.869702331100         0.120387080506
   21          0.394616975900        -0.050732814694
   22          0.394616975900        -0.446127082142
   23          0.394616975900        -0.123719349559
   24          0.394616975900        -0.514644960524
 D 24
    1         17.215377137000        -0.000329937041
    2          5.849691687100         0.003165454038
    3          1.823296724900        -0.027796531961
    4          0.869702331100        -0.057703436728
    5         17.215377137000        -0.002901353870
    6          5.849691687100         0.027835923731
    7          1.823296724900        -0.244433226442
    8          0.869702331100        -0.507424351934
    9         17.215377137000        -0.000804599471
   10          5.849691687100         0.007719420142
   11          1.823296724900        -0.067785886674
   12          0.869702331100        -0.140718224426
   13         17.215377137000        -0.003346954722
   14          5.849691687100         0.032111069715
   15          1.823296724900        -0.281974201782
   16          0.869702331100        -0.585356494631
   17         17.215377137000         0.003831326527
   18          5.849691687100        -0.036758188695
   19          1.823296724900         0.322781551913
   20          0.869702331100         0.670069377146
   21          0.394616975900         0.126185659933
   22          0.394616975900         1.109633677743
   23          0.394616975900         0.307722087637
   24          0.394616975900         1.280055396341
 P 24
    1          9.108734343900        -0.016849204934
    2          5.349547662600         0.063580962292
    3          1.487019659900        -0.088373150418
    4          0.905854738400        -0.102039787869
    5          9.108734343900        -0.247112926652
    6          5.349547662600         0.932487778084
    7          1.487019659900        -1.296093668678
    8          0.905854738400        -1.496530590855
    9          9.108734343900        -0.098052391347
   10          5.349547662600         0.370003535558
   11          1.487019659900        -0.514279383705
   12          0.905854738400        -0.593811117638
   13          0.501412402100         0.274519063917
   14          0.501412402100         4.026137112829
   15          0.501412402100         1.597538328545
   16          0.232863181500        -0.159971606677
   17          0.232863181500        -2.346167196731
   18          0.232863181500        -0.930939984635
   19          0.062000000000         0.047680836996
   20          0.062000000000         0.699294193498
   21          0.062000000000         0.277474225476
   22          0.021000000000        -0.016969009960
   23          0.021000000000        -0.248870004846
   24          0.021000000000        -0.098749585627
 end
  // -----------------------------------------------
  // The basis set
  // -----------------------------------------------
  BAS[ATNO] = new BFNGauss[NSH];
  // Basis function   1 L = s
  InitBFNGauss(BAS[ATNO][  0]);
  BAS[ATNO][  0].l  = 0;
  BAS[ATNO][  0].ng = 9;
  BAS[ATNO][  0].a[  0] =        15.000000000000;     BAS[ATNO][  0].d[  0] =         0.057002639520;
  BAS[ATNO][  0].a[  1] =        13.500000000000;     BAS[ATNO][  0].d[  1] =        -0.667308377722;
  BAS[ATNO][  0].a[  2] =        12.571764111000;     BAS[ATNO][  0].d[  2] =         0.754149568723;
  BAS[ATNO][  0].a[  3] =         4.130434234800;     BAS[ATNO][  0].d[  3] =        -0.628526959511;
  BAS[ATNO][  0].a[  4] =         0.964781133300;     BAS[ATNO][  0].d[  4] =         0.854187327437;
  BAS[ATNO][  0].a[  5] =         0.437366489800;     BAS[ATNO][  0].d[  5] =         0.436220666110;
  BAS[ATNO][  0].a[  6] =         0.113186055100;     BAS[ATNO][  0].d[  6] =         0.011951973975;
  BAS[ATNO][  0].a[  7] =         0.057579423700;     BAS[ATNO][  0].d[  7] =        -0.002607351511;
  BAS[ATNO][  0].a[  8] =         0.027018151500;     BAS[ATNO][  0].d[  8] =         0.000289754433;

FINAL SINGLE POINT ENERGY       -67.476286452683

DIPOLE MOMENT
-------------
                                X             Y             Z
Electronic contribution:      0.00000       0.00000       0.00000
Nuclear contribution   :      0.00000       0.00000       0.00000
                        -----------------------------------------
Total Dipole Moment    :      0.00000       0.00000       0.00000
                        -----------------------------------------
Magnitude (a.u.)       :      0.00000
Magnitude (Debye)      :      0.00000

Rotational constants in cm-1:     0.000000     0.000000     0.000000
Rotational constants in MHz :     0.000000     0.000000     0.000000

                             ****ORCA TERMINATED NORMALLY****
TOTAL RUN TIME: 0 days 0 hours 0 minutes 6 seconds 669 msec
