                         Program Version 4.2.0 -  RELEASE  -
|  1> #
|  2> # 43_Tc CCSD(T)/Def2-QZVP
|  3> #
|  4> ! CCSD(T) Def2-QZVP tightscf
|  5>
|  6> *xyz 0 6
|  7>  Tc 0.0 0.0 0.0
|  8> *
|  9>
| 10> %maxcore 5000
| 11>
| 12> %pal
| 13> nprocs 24
| 14> end
| 15>
| 16>
| 17>                          ****END OF INPUT****

CARTESIAN COORDINATES (ANGSTROEM)
---------------------------------
  Tc     0.000000    0.000000    0.000000

 Total Charge           Charge          ....    0
 Multiplicity           Mult            ....    6
 Number of Electrons    NEL             ....   15
 Basis Dimension        Dim             ....   72

ORBITAL ENERGIES
----------------
                 SPIN UP ORBITALS
  NO   OCC          E(Eh)            E(eV)
   0   1.0000      -3.317682       -90.2787
   1   1.0000      -2.165319       -58.9213
   2   1.0000      -2.116899       -57.6038
   3   1.0000      -2.114005       -57.5250
   4   1.0000      -0.407121       -11.0783
   5   1.0000      -0.401880       -10.9357
   6   1.0000      -0.400633       -10.9018
   7   1.0000      -0.384205       -10.4548
   8   1.0000      -0.347656        -9.4602
   9   1.0000      -0.239278        -6.5111
  10   0.0000       0.020842         0.5671
  11   0.0000       0.025913         0.7051
  12   0.0000       0.026433         0.7193
  13   0.0000       0.093896         2.5550
  14   0.0000       0.122287         3.3276

                 SPIN DOWN ORBITALS
  NO   OCC          E(Eh)            E(eV)
   0   1.0000      -3.100015       -84.3557
   1   1.0000      -1.866762       -50.7972
   2   1.0000      -1.864891       -50.7463
   3   1.0000      -1.826896       -49.7124
   4   1.0000      -0.250181        -6.8078
   5   0.0000       0.019371         0.5271
   6   0.0000       0.044907         1.2220
   7   0.0000       0.046179         1.2566
   8   0.0000       0.046249         1.2585
   9   0.0000       0.144265         3.9257

E(0)                                       ...    -80.086327496
E(0)                                       ...    -80.086327496
E(CORR)                                    ...     -0.445439229
E(TOT)                                     ...    -80.531766724
E(CCSD(T))                                 ...    -80.546881235

MULLIKEN ATOMIC CHARGES AND SPIN DENSITIES
------------------------------------------
   0 Tc:   -0.000000    5.000000
Sum of atomic charges       :   -0.0000000

LOEWDIN ATOMIC CHARGES AND SPIN DENSITIES
-----------------------------------------
   0 Tc:   -0.000000    5.000000

FINAL SINGLE POINT ENERGY       -80.546881234717

DIPOLE MOMENT
-------------
                                X             Y             Z
Electronic contribution:      0.00000       0.00000       0.00000
Nuclear contribution   :      0.00000       0.00000       0.00000
                        -----------------------------------------
Total Dipole Moment    :      0.00000       0.00000       0.00000
                        -----------------------------------------
Magnitude (a.u.)       :      0.00000
Magnitude (Debye)      :      0.00000

Rotational constants in cm-1:     0.000000     0.000000     0.000000
Rotational constants in MHz :     0.000000     0.000000     0.000000

                             ****ORCA TERMINATED NORMALLY****
TOTAL RUN TIME: 0 days 0 hours 0 minutes 28 seconds 310 msec
