                         Program Version 4.2.0 -  RELEASE  -
|  1> # input to generate an atomic fitting density for Tc
|  2> # this file is use internally by ORCA
|  3> #
|  4> # atomic ground state (S=6): 1s2 2s2 2p6 3s2 3p6 4s2 3d10 4p6 5s2 4d5
|  5> #
|  6> ! RHF AllowRHF def2-SVP def2/J  NoMulliken NoLoewdin NoMayer NoPrintMOs
|  7>
|  8> %output print[p_atomdensfit] 2 end
|  9>
| 10> %scf
| 11>   guess hcore
| 12>   maxiter 1000
| 13>   maxdisk 500000
| 14>   SCFMode Conventional
| 15>   lshift 1.000000
| 16>   hftyp rohf
| 17>   rohf_case sahf
| 18>   rohf_numop   2
| 19>   rohf_norb[1] 5
| 20>   rohf_nel[1]  5
| 21> end
| 22>
| 23> %basis
| 24>   NewECP 43
| 25>     N_core 28
| 26>     lmax f
| 27>     s 4
| 28>       1      10.4223462000    195.1591659000  2
| 29>       2       5.0365160000     28.0926033000  2
| 30>       3      10.4000000000     26.5624475000  2
| 31>       4       5.2000000000      4.5856805000  2
| 32>     p 4
| 33>       1       8.9504494000    135.2845662000  2
| 34>       2       4.8544394000     21.8065043000  2
| 35>       3      10.4000000000     26.5624475000  2
| 36>       4       5.2000000000      4.5856805000  2
| 37>     d 4
| 38>       1       6.9456968000     54.3297294000  2
| 39>       2       3.9705849000     11.1550679000  2
| 40>       3      10.4000000000     26.5624475000  2
| 41>       4       5.2000000000      4.5856805000  2
| 42>     f 2
| 43>       1      10.4000000000    -26.5624475000  2
| 44>       2       5.2000000000     -4.5856805000  2
| 45>   end
| 46>   NewGTO 43
| 47>     s 3
| 48>      1      15.0000000000     -2.0085206721
| 49>      2      13.5000000000      2.8698929234
| 50>      3       7.1022525122      0.1284702656
| 51>     s 1
| 52>      1       4.4415995038      1.0000000000
| 53>     s 1
| 54>      1       1.0660127848      1.0000000000
| 55>     s 1
| 56>      1       0.4856855967      1.0000000000
| 57>     s 1
| 58>      1       0.1265496545      1.0000000000
| 59>     s 1
| 60>      1       0.0669979544      1.0000000000
| 61>     s 1
| 62>      1       0.0298221048      1.0000000000
| 63>     p 4
| 64>      1      10.2980299680      0.0841503175
| 65>      2       5.7213792785     -0.3636933045
| 66>      3       1.6296063991      0.5383058862
| 67>      4       0.9752862323      0.6204597976
| 68>     p 1
| 69>      1       0.5399762569      1.0000000000
| 70>     p 1
| 71>      1       0.2517202538      1.0000000000
| 72>     p 1
| 73>      1       0.0640000000      1.0000000000
| 74>     p 1
| 75>      1       0.0215000000      1.0000000000
| 76>     d 4
| 77>      1      18.6177083860      0.0043209246
| 78>      2       5.8369803972     -0.0574413445
| 79>      3       2.0921979438      0.3407141220
| 80>      4       1.0148117201      0.7300447253
| 81>     d 1
| 82>      1       0.4615421550      1.0000000000
| 83>     d 1
| 84>      1       0.1979507104      1.0000000000
| 85>     d 1
| 86>      1       0.0786198723      1.0000000000
| 87>   end
| 88>   NewAuxGTO 43
| 89>     S 1
| 90>      1 1310.72 1.0
| 91>     S 1
| 92>      1  655.36 1.0
| 93>     S 1
| 94>      1  327.68 1.0
| 95>     S 1
| 96>      1  163.84 1.0
| 97>     S 1
| 98>      1   81.82 1.0
| 99>     S 1
|100>      1   40.96 1.0
|101>     S 1
|102>      1   20.48 1.0
|103>     S 1
|104>      1   10.24 1.0
|105>     S 1
|106>      1    5.12 1.0
|107>     S 1
|108>      1    2.56 1.0
|109>     S 1
|110>      1    1.28 1.0
|111>     S 1
|112>      1    0.64 1.0
|113>     S 1
|114>      1    0.32 1.0
|115>     S 1
|116>      1    0.16 1.0
|117>     S 1
|118>      1    0.08 1.0
|119>     S 1
|120>      1    0.04 1.0
|121>     S 1
|122>      1    0.02 1.0
|123>     S 1
|124>      1    0.01 1.0
|125>   end
|126> end
|127>
|128> * xyz 0 6
|129> 43  0.0 0.0 0.0
|130> *
|131>
|132>
|133>                          ****END OF INPUT****

CARTESIAN COORDINATES (ANGSTROEM)
---------------------------------
  Tc     0.000000    0.000000    0.000000

 Total Charge           Charge          ....    0
 Multiplicity           Mult            ....    6
 Number of Electrons    NEL             ....   15
 Basis Dimension        Dim             ....   42

ORBITAL ENERGIES
----------------

  NO   OCC          E(Eh)            E(eV)
   0   2.0000      -3.388261       -92.1993
   1   2.0000      -2.162325       -58.8399
   2   2.0000      -2.161944       -58.8295
   3   2.0000      -2.153414       -58.5974
   4   2.0000      -0.477470       -12.9926
   5   1.0000      -0.538232       -14.6460
   6   1.0000      -0.537524       -14.6268
   7   1.0000      -0.534817       -14.5531
   8   1.0000      -0.339612        -9.2413
   9   1.0000      -0.185002        -5.0342
  10   0.0000      -0.034404        -0.9362
  11   0.0000       0.007653         0.2082
  12   0.0000       0.007890         0.2147
  13   0.0000       0.077364         2.1052
  14   0.0000       0.085820         2.3353

CleanUpVectors: The p-vectors have cracked symmetry
CleanUpVectors: The p-vectors have cracked symmetry
CleanUpVectors: The p-vectors have cracked symmetry
CleanUpVectors: The d-vectors have cracked symmetry at i=4
CleanUpVectors: The d-vectors have cracked symmetry at i=5
CleanUpVectors: The d-vectors have cracked symmetry at i=6
CleanUpVectors: The d-vectors have cracked symmetry at i=7
CleanUpVectors: The p-vectors have cracked symmetry
CleanUpVectors: The d-vectors have cracked symmetry at i=10
CleanUpVectors: The p-vectors have cracked symmetry
CleanUpVectors: The p-vectors have cracked symmetry
CleanUpVectors: The p-vectors have cracked symmetry
CleanUpVectors: The p-vectors have cracked symmetry
CleanUpVectors: The p-vectors have cracked symmetry
CleanUpVectors: The d-vectors have cracked symmetry at i=17
CleanUpVectors: The d-vectors have cracked symmetry at i=18
CleanUpVectors: The d-vectors have cracked symmetry at i=19
CleanUpVectors: The d-vectors have cracked symmetry at i=20
CleanUpVectors: The d-vectors have cracked symmetry at i=21
CleanUpVectors: The p-vectors have cracked symmetry
CleanUpVectors: The p-vectors have cracked symmetry
CleanUpVectors: The p-vectors have cracked symmetry
CleanUpVectors: The d-vectors have cracked symmetry at i=26
CleanUpVectors: The d-vectors have cracked symmetry at i=27
CleanUpVectors: The d-vectors have cracked symmetry at i=28
CleanUpVectors: The d-vectors have cracked symmetry at i=29
CleanUpVectors: The d-vectors have cracked symmetry at i=30
CleanUpVectors: The d-vectors have cracked symmetry at i=32
CleanUpVectors: The d-vectors have cracked symmetry at i=33
CleanUpVectors: The d-vectors have cracked symmetry at i=34
CleanUpVectors: The d-vectors have cracked symmetry at i=35
CleanUpVectors: The d-vectors have cracked symmetry at i=36
CleanUpVectors: The p-vectors have cracked symmetry
CleanUpVectors: The p-vectors have cracked symmetry
CleanUpVectors: The p-vectors have cracked symmetry
--------------------------
ATOM BASIS FOR ELEMENT Tc
--------------------------
 NewGTO Tc
 S 9
    1         15.000000000000        -0.316126993651
    2         13.500000000000         0.451700913302
    3          7.102252512200         0.020220314086
    4          4.441599503800        -0.653622536900
    5          1.066012784800         0.850393093286
    6          0.485685596700         0.451090004091
    7          0.126549654500         0.012447680061
    8          0.066997954400        -0.003978069412
    9          0.029822104800        -0.000036434025
 P 24
    1         10.298029968000        -0.042448922237
    2          5.721379278500         0.183462038641
    3          1.629606399100        -0.271543891715
    4          0.975286232300        -0.312985743631
    5         10.298029968000        -0.011509275873
    6          5.721379278500         0.049742492945
    7          1.629606399100        -0.073624332413
    8          0.975286232300        -0.084860558946
    9         10.298029968000        -0.030539195398
   10          5.721379278500         0.131988817403
   11          1.629606399100        -0.195357892052
   12          0.975286232300        -0.225172566880
   13          0.539976256900        -0.274365841337
   14          0.539976256900        -0.074389454234
   15          0.539976256900        -0.197388098389
   16          0.251720253800        -0.057741300334
   17          0.251720253800        -0.015655534223
   18          0.251720253800        -0.041541051233
   19          0.064000000000        -0.001919620060
   20          0.064000000000        -0.000520471090
   21          0.064000000000        -0.001381039824
   22          0.021500000000         0.000360030721
   23          0.021500000000         0.000097615974
   24          0.021500000000         0.000259018320
 D 24
    1         15.000000000000        -0.000002488416
    2         13.500000000000         0.000003950662
    3          7.102252512200         0.000000336159
    4          4.441599503800        -0.000018844755
    5          1.066012784800         0.000131294015
    6          0.485685596700         0.000362390692
    7          0.126549654500        -0.001925834062
    8          0.066997954400        -0.003853422141
    9          0.029822104800        -0.003506066178
   10         18.617708386000         0.000963772687
   11          5.836980397200        -0.012812164995
   12          2.092197943800         0.075995532227
   13          1.014811720100         0.162834863208
   14         18.617708386000         0.001069782396
   15          5.836980397200        -0.014221432875
   16          2.092197943800         0.084354623969
   17          1.014811720100         0.180745805080
   18         18.617708386000         0.001054762042
   19          5.836980397200        -0.014021755861
   20          2.092197943800         0.083170237025
   21          1.014811720100         0.178208031077
   22         18.617708386000        -0.001249020014
   23          5.836980397200         0.016604175159
   24          2.092197943800        -0.098487892475
 S 9
    1         15.000000000000         0.083290923075
    2         13.500000000000        -0.119010988553
    3          7.102252512200        -0.005327506537
    4          4.441599503800         0.198515197508
    5          1.066012784800        -0.113284188503
    6          0.485685596700        -1.365085514432
    7          0.126549654500         6.072941423645
    8          0.066997954400        -6.936802183416
    9          0.029822104800         2.223522753151
 S 9
    1         15.000000000000        -0.505699565267
    2         13.500000000000         0.722573396374
    3          7.102252512200         0.032345874437
    4          4.441599503800        -1.118675920804
    5          1.066012784800         4.425758045586
    6          0.485685596700        -5.387539891098
    7          0.126549654500         4.801270737075
    8          0.066997954400        -3.817096758994
    9          0.029822104800         1.015912500422
 S 9
    1         15.000000000000        -3.526838667034
    2         13.500000000000         5.039355319113
    3          7.102252512200         0.225585878491
    4          4.441599503800        -3.338434804333
    5          1.066012784800         2.621659456721
    6          0.485685596700        -1.967145618515
    7          0.126549654500         1.273795680184
    8          0.066997954400        -0.998255787066
    9          0.029822104800         0.270114382640
 S 9
    1         15.000000000000        -4.066796474122
    2         13.500000000000         5.810878914076
    3          7.102252512200         0.260123000191
    4          4.441599503800        -1.583232974527
    5          1.066012784800         0.875640533348
    6          0.485685596700        -0.629421384157
    7          0.126549654500         0.403987277443
    8          0.066997954400        -0.317322167813
    9          0.029822104800         0.086106231560
 D 24
    1         15.000000000000        -0.000084007943
    2         13.500000000000         0.000133372787
    3          7.102252512200         0.000011348588
    4          4.441599503800        -0.000555755281
    5          1.066012784800         0.001986875326
    6          0.485685596700         0.008679094142
    7          0.126549654500        -0.018749425270
    8          0.066997954400         0.020679722059
    9          0.029822104800        -0.062018168690
   10         18.617708386000        -0.000267717425
   11          5.836980397200         0.003558971812
   12          2.092197943800        -0.021110090068
   13          1.014811720100        -0.045232377849
   14         18.617708386000         0.000541847183
   15          5.836980397200        -0.007203187642
   16          2.092197943800         0.042725806200
   17          1.014811720100         0.091548155584
   18         18.617708386000        -0.001569389814
   19          5.836980397200         0.020863095127
   20          2.092197943800        -0.123749734628
   21          1.014811720100        -0.265157312800
   22         18.617708386000        -0.001072441437
   23          5.836980397200         0.014256781532
   24          2.092197943800        -0.084564295011
 P 24
    1         10.298029968000         0.003710632896
    2          5.721379278500        -0.016037162780
    3          1.629606399100         0.023736755710
    4          0.975286232300         0.027359356495
    5         10.298029968000         0.002132623508
    6          5.721379278500        -0.009217088112
    7          1.629606399100         0.013642298945
    8          0.975286232300         0.015724327486
    9         10.298029968000        -0.005961431438
   10          5.721379278500         0.025764997255
   11          1.629606399100        -0.038135015158
   12          0.975286232300        -0.043955015899
   13          0.539976256900         0.013665875958
   14          0.539976256900         0.007854231110
   15          0.539976256900        -0.021955333457
   16          0.251720253800         0.036223752073
   17          0.251720253800         0.020818988943
   18          0.251720253800        -0.058196383333
   19          0.064000000000        -0.569328133789
   20          0.064000000000        -0.327211717290
   21          0.064000000000         0.914671628971
   22          0.021500000000         0.721969759427
   23          0.021500000000         0.414939910383
   24          0.021500000000        -1.159902728725
 D 24
    1         15.000000000000         0.000000885500
    2         13.500000000000        -0.000001405838
    3          7.102252512200        -0.000000119622
    4          4.441599503800         0.000006937354
    5          1.066012784800        -0.000033747160
    6          0.485685596700        -0.000259157124
    7          0.126549654500         0.005029860059
    8          0.066997954400        -0.011907231949
    9          0.029822104800         0.010680734251
   10         18.617708386000         0.000331609942
   11          5.836980397200        -0.004408343739
   12          2.092197943800         0.026148151291
   13          1.014811720100         0.056027381003
   14         18.617708386000         0.000363325502
   15          5.836980397200        -0.004829962852
   16          2.092197943800         0.028648990838
   17          1.014811720100         0.061385904768
   18         18.617708386000         0.000370158092
   19          5.836980397200        -0.004920793684
   20          2.092197943800         0.029187755166
   21          1.014811720100         0.062540309680
   22         18.617708386000        -0.000421704145
   23          5.836980397200         0.005606034665
   24          2.092197943800        -0.033252271433
 P 24
    1         10.298029968000        -0.016094709676
    2          5.721379278500         0.069560499842
    3          1.629606399100        -0.102957151118
    4          0.975286232300        -0.118670025318
    5         10.298029968000        -0.004363796393
    6          5.721379278500         0.018860101514
    7          1.629606399100        -0.027915013924
    8          0.975286232300        -0.032175282369
    9         10.298029968000        -0.011579080405
   10          5.721379278500         0.050044184509
   11          1.629606399100        -0.074070868938
   12          0.975286232300        -0.085375243942
   13          0.539976256900        -0.902448194180
   14          0.539976256900        -0.244682896067
   15          0.539976256900        -0.649251860494
   16          0.251720253800         1.793691341844
   17          0.251720253800         0.486327741586
   18          0.251720253800         1.290442430219
   19          0.064000000000        -1.052922728520
   20          0.064000000000        -0.285481409582
   21          0.064000000000        -0.757508347689
   22          0.021500000000         0.406409093173
   23          0.021500000000         0.110190650884
   24          0.021500000000         0.292384495383
 D 24
    1         15.000000000000         0.000002857719
    2         13.500000000000        -0.000004536975
    3          7.102252512200        -0.000000386048
    4          4.441599503800         0.000021707079
    5          1.066012784800        -0.000226078292
    6          0.485685596700         0.000099676470
    7          0.126549654500         0.003183782551
    8          0.066997954400        -0.005170938734
    9          0.029822104800         0.001976523283
   10         18.617708386000         0.000514844827
   11          5.836980397200        -0.006844224744
   12          2.092197943800         0.040596612852
   13          1.014811720100         0.086985954394
   14         18.617708386000         0.000563774171
   15          5.836980397200        -0.007494679818
   16          2.092197943800         0.044454796039
   17          1.014811720100         0.095252844737
   18         18.617708386000         0.000575166347
   19          5.836980397200        -0.007646124693
   20          2.092197943800         0.045353093386
   21          1.014811720100         0.097177617435
   22         18.617708386000        -0.000654195464
   23          5.836980397200         0.008696718992
   24          2.092197943800        -0.051584707869
 D 24
    1         15.000000000000         0.000008515064
    2         13.500000000000        -0.000013518696
    3          7.102252512200        -0.000001150295
    4          4.441599503800         0.000066255253
    5          1.066012784800        -0.001057911493
    6          0.485685596700         0.002620803770
    7          0.126549654500        -0.007258200937
    8          0.066997954400         0.009899191590
    9          0.029822104800        -0.005570666966
   10         18.617708386000         0.002824966581
   11          5.836980397200        -0.037554434204
   12          2.092197943800         0.222754641078
   13          1.014811720100         0.477294130928
   14         18.617708386000         0.003066909927
   15          5.836980397200        -0.040770771526
   16          2.092197943800         0.241832389973
   17          1.014811720100         0.518171831771
   18         18.617708386000         0.003196317513
   19          5.836980397200        -0.042491085211
   20          2.092197943800         0.252036454171
   21          1.014811720100         0.540035977585
   22         18.617708386000        -0.003544699616
   23          5.836980397200         0.047122394080
   24          2.092197943800        -0.279507126188
 P 24
    1         10.298029968000        -0.170715048794
    2          5.721379278500         0.737821580101
    3          1.629606399100        -1.092056671430
    4          0.975286232300        -1.258721627784
    5         10.298029968000        -0.046286371651
    6          5.721379278500         0.200047295831
    7          1.629606399100        -0.296091887125
    8          0.975286232300        -0.341280147712
    9         10.298029968000        -0.122818200255
   10          5.721379278500         0.530813886752
   11          1.629606399100        -0.785662634368
   12          0.975286232300        -0.905567060659
   13          0.539976256900         3.401061520888
   14          0.539976256900         0.922137788534
   15          0.539976256900         2.446839091828
   16          0.251720253800        -1.964056233990
   17          0.251720253800        -0.532519174101
   18          0.251720253800        -1.413008715768
   19          0.064000000000         0.560219776032
   20          0.064000000000         0.151893702066
   21          0.064000000000         0.403041121012
   22          0.021500000000        -0.202748992909
   23          0.021500000000        -0.054971810066
   24          0.021500000000        -0.145864506899
 end
  // -----------------------------------------------
  // The basis set
  // -----------------------------------------------
  BAS[ATNO] = new BFNGauss[NSH];
  // Basis function   1 L = s
  InitBFNGauss(BAS[ATNO][  0]);
  BAS[ATNO][  0].l  = 0;
  BAS[ATNO][  0].ng = 9;
  BAS[ATNO][  0].a[  0] =        15.000000000000;     BAS[ATNO][  0].d[  0] =        -0.316126993651;
  BAS[ATNO][  0].a[  1] =        13.500000000000;     BAS[ATNO][  0].d[  1] =         0.451700913302;
  BAS[ATNO][  0].a[  2] =         7.102252512200;     BAS[ATNO][  0].d[  2] =         0.020220314086;
  BAS[ATNO][  0].a[  3] =         4.441599503800;     BAS[ATNO][  0].d[  3] =        -0.653622536900;
  BAS[ATNO][  0].a[  4] =         1.066012784800;     BAS[ATNO][  0].d[  4] =         0.850393093286;
  BAS[ATNO][  0].a[  5] =         0.485685596700;     BAS[ATNO][  0].d[  5] =         0.451090004091;
  BAS[ATNO][  0].a[  6] =         0.126549654500;     BAS[ATNO][  0].d[  6] =         0.012447680061;
  BAS[ATNO][  0].a[  7] =         0.066997954400;     BAS[ATNO][  0].d[  7] =        -0.003978069412;
  BAS[ATNO][  0].a[  8] =         0.029822104800;     BAS[ATNO][  0].d[  8] =        -0.000036434025;

FINAL SINGLE POINT ENERGY       -79.945502809015

DIPOLE MOMENT
-------------
                                X             Y             Z
Electronic contribution:      0.00000       0.00000       0.00000
Nuclear contribution   :      0.00000       0.00000       0.00000
                        -----------------------------------------
Total Dipole Moment    :      0.00000       0.00000       0.00000
                        -----------------------------------------
Magnitude (a.u.)       :      0.00000
Magnitude (Debye)      :      0.00000

Rotational constants in cm-1:     0.000000     0.000000     0.000000
Rotational constants in MHz :     0.000000     0.000000     0.000000

                             ****ORCA TERMINATED NORMALLY****
TOTAL RUN TIME: 0 days 0 hours 0 minutes 1 seconds 488 msec
