                         Program Version 4.2.0 -  RELEASE  -
|  1> #
|  2> # 44_Ru CCSD(T)/Def2-QZVP
|  3> #
|  4> ! CCSD(T) Def2-QZVP tightscf slowconv
|  5>
|  6> *xyz 0 5
|  7>  Ru 0.0 0.0 0.0
|  8> *
|  9>
| 10> %maxcore 5000
| 11>
| 12> %pal
| 13> nprocs 24
| 14> end
| 15>
| 16>
| 17>                          ****END OF INPUT****

CARTESIAN COORDINATES (ANGSTROEM)
---------------------------------
  Ru     0.000000    0.000000    0.000000

 Total Charge           Charge          ....    0
 Multiplicity           Mult            ....    5
 Number of Electrons    NEL             ....   16
 Basis Dimension        Dim             ....   72

ORBITAL ENERGIES
----------------
                 SPIN UP ORBITALS
  NO   OCC          E(Eh)            E(eV)
   0   1.0000      -3.580699       -97.4358
   1   1.0000      -2.299128       -62.5625
   2   1.0000      -2.299128       -62.5625
   3   1.0000      -2.299128       -62.5624
   4   1.0000      -0.439822       -11.9682
   5   1.0000      -0.439822       -11.9682
   6   1.0000      -0.439822       -11.9682
   7   1.0000      -0.399194       -10.8626
   8   1.0000      -0.399194       -10.8626
   9   1.0000      -0.239017        -6.5040
  10   0.0000       0.026873         0.7313
  11   0.0000       0.026873         0.7313
  12   0.0000       0.026873         0.7313
  13   0.0000       0.102440         2.7875
  14   0.0000       0.134621         3.6632

                 SPIN DOWN ORBITALS
  NO   OCC          E(Eh)            E(eV)
   0   1.0000      -3.399607       -92.5080
   1   1.0000      -2.072454       -56.3943
   2   1.0000      -2.072454       -56.3943
   3   1.0000      -2.072454       -56.3943
   4   1.0000      -0.332112        -9.0372
   5   1.0000      -0.332112        -9.0372
   6   0.0000       0.016957         0.4614
   7   0.0000       0.046624         1.2687
   8   0.0000       0.046624         1.2687
   9   0.0000       0.046624         1.2687
  10   0.0000       0.149087         4.0569

E(0)                                       ...    -94.125877296
E(0)                                       ...    -94.125877296
E(CORR)                                    ...     -0.499129386
E(TOT)                                     ...    -94.625006683
E(CCSD(T))                                 ...    -94.641757760

MULLIKEN ATOMIC CHARGES AND SPIN DENSITIES
------------------------------------------
   0 Ru:   -0.000000    4.000000
Sum of atomic charges       :   -0.0000000

LOEWDIN ATOMIC CHARGES AND SPIN DENSITIES
-----------------------------------------
   0 Ru:   -0.000000    4.000000

FINAL SINGLE POINT ENERGY       -94.641757760058

DIPOLE MOMENT
-------------
                                X             Y             Z
Electronic contribution:     -0.00000      -0.00000      -0.00000
Nuclear contribution   :      0.00000       0.00000       0.00000
                        -----------------------------------------
Total Dipole Moment    :     -0.00000      -0.00000      -0.00000
                        -----------------------------------------
Magnitude (a.u.)       :      0.00000
Magnitude (Debye)      :      0.00000

Rotational constants in cm-1:     0.000000     0.000000     0.000000
Rotational constants in MHz :     0.000000     0.000000     0.000000

                             ****ORCA TERMINATED NORMALLY****
TOTAL RUN TIME: 0 days 0 hours 0 minutes 14 seconds 39 msec
