                         Program Version 4.2.0 -  RELEASE  -
|  1> #
|  2> # 45_Rh CCSD(T)/Def2-QZVP
|  3> #
|  4> ! CCSD(T) Def2-QZVP tightscf
|  5>
|  6> *xyz 0 4
|  7>  Rh 0.0 0.0 0.0
|  8> *
|  9>
| 10> %maxcore 5000
| 11>
| 12> %pal
| 13> nprocs 24
| 14> end
| 15>
| 16>
| 17>                          ****END OF INPUT****

CARTESIAN COORDINATES (ANGSTROEM)
---------------------------------
  Rh     0.000000    0.000000    0.000000

 Total Charge           Charge          ....    0
 Multiplicity           Mult            ....    4
 Number of Electrons    NEL             ....   17
 Basis Dimension        Dim             ....   72

ORBITAL ENERGIES
----------------
                 SPIN UP ORBITALS
  NO   OCC          E(Eh)            E(eV)
   0   1.0000      -3.827357      -104.1477
   1   1.0000      -2.452770       -66.7433
   2   1.0000      -2.452770       -66.7433
   3   1.0000      -2.452770       -66.7433
   4   1.0000      -0.481963       -13.1149
   5   1.0000      -0.481963       -13.1149
   6   1.0000      -0.439004       -11.9459
   7   1.0000      -0.439004       -11.9459
   8   1.0000      -0.439004       -11.9459
   9   1.0000      -0.237576        -6.4648
  10   0.0000       0.028387         0.7724
  11   0.0000       0.028387         0.7724
  12   0.0000       0.028387         0.7724
  13   0.0000       0.128147         3.4870
  14   0.0000       0.138230         3.7614

                 SPIN DOWN ORBITALS
  NO   OCC          E(Eh)            E(eV)
   0   1.0000      -3.693157      -100.4959
   1   1.0000      -2.289524       -62.3011
   2   1.0000      -2.289524       -62.3011
   3   1.0000      -2.289524       -62.3011
   4   1.0000      -0.390749       -10.6328
   5   1.0000      -0.390749       -10.6328
   6   1.0000      -0.390749       -10.6328
   7   0.0000       0.016026         0.4361
   8   0.0000       0.046739         1.2718
   9   0.0000       0.046739         1.2718
  10   0.0000       0.046739         1.2718
  11   0.0000       0.161908         4.4057

E(0)                                       ...   -109.746286166
E(0)                                       ...   -109.746286166
E(CORR)                                    ...     -0.558860905
E(TOT)                                     ...   -110.305147072
E(CCSD(T))                                 ...   -110.323843388

MULLIKEN ATOMIC CHARGES AND SPIN DENSITIES
------------------------------------------
   0 Rh:   -0.000000    3.000000
Sum of atomic charges       :   -0.0000000

LOEWDIN ATOMIC CHARGES AND SPIN DENSITIES
-----------------------------------------
   0 Rh:   -0.000000    3.000000

FINAL SINGLE POINT ENERGY      -110.323843387591

DIPOLE MOMENT
-------------
                                X             Y             Z
Electronic contribution:     -0.00000      -0.00000       0.00000
Nuclear contribution   :      0.00000       0.00000       0.00000
                        -----------------------------------------
Total Dipole Moment    :     -0.00000      -0.00000       0.00000
                        -----------------------------------------
Magnitude (a.u.)       :      0.00000
Magnitude (Debye)      :      0.00000

Rotational constants in cm-1:     0.000000     0.000000     0.000000
Rotational constants in MHz :     0.000000     0.000000     0.000000

                             ****ORCA TERMINATED NORMALLY****
TOTAL RUN TIME: 0 days 0 hours 0 minutes 18 seconds 881 msec
