                         Program Version 4.2.0 -  RELEASE  -
|  1> # input to generate an atomic fitting density for Pd
|  2> # this file is use internally by ORCA
|  3> #
|  4> # atomic ground state (S=3): 1s2 2s2 2p6 3s2 3p6 4s2 3d10 4p6 5s2 4d8
|  5> #
|  6> ! RHF AllowRHF def2-SVP def2/J  NoMulliken NoLoewdin NoMayer NoPrintMOs
|  7>
|  8> %output print[p_atomdensfit] 2 end
|  9>
| 10> %scf
| 11>   guess hcore
| 12>   maxiter 1000
| 13>   maxdisk 500000
| 14>   SCFMode Conventional
| 15>   lshift 1.000000
| 16>   hftyp rohf
| 17>   rohf_case sahf
| 18>   rohf_numop   2
| 19>   rohf_norb[1] 5
| 20>   rohf_nel[1]  8
| 21> end
| 22>
| 23> %basis
| 24>   NewECP 46
| 25>     N_core 28
| 26>     lmax f
| 27>     s 4
| 28>       1      12.4300000000    240.2290403000  2
| 29>       2       6.1707594000     35.1719435000  2
| 30>       3      13.2700000000     31.9295543000  2
| 31>       4       6.6300000000      5.3982169000  2
| 32>     p 4
| 33>       1      11.0800000000    170.4172760000  2
| 34>       2       5.8295541000     28.4721329000  2
| 35>       3      13.2700000000     31.9295543000  2
| 36>       4       6.6300000000      5.3982169000  2
| 37>     d 4
| 38>       1       9.5100000000     69.0138449000  2
| 39>       2       4.1397811000     11.7508616000  2
| 40>       3      13.2700000000     31.9295543000  2
| 41>       4       6.6300000000      5.3982169000  2
| 42>     f 2
| 43>       1      13.2700000000    -31.9295543000  2
| 44>       2       6.6300000000     -5.3982169000  2
| 45>   end
| 46>   NewGTO 46
| 47>     s 3
| 48>      1      15.2623993310      2.3810430718
| 49>      2      13.7219831760     -3.7913221630
| 50>      3       4.8448286268      1.9468402382
| 51>     s 1
| 52>      1       8.7309326588      1.0000000000
| 53>     s 1
| 54>      1       1.4357564094      1.0000000000
| 55>     s 1
| 56>      1       0.6608843372      1.0000000000
| 57>     s 1
| 58>      1       0.2089721279      1.0000000000
| 59>     s 1
| 60>      1       0.0919367359      1.0000000000
| 61>     s 1
| 62>      1       0.0347334797      1.0000000000
| 63>     p 4
| 64>      1      12.5852370080      0.0804767927
| 65>      2       7.2058104839     -0.3221939489
| 66>      3       1.9558705640      0.5824305331
| 67>      4       1.0534418618      0.5644512234
| 68>     p 1
| 69>      1       0.5980938955      1.0000000000
| 70>     p 1
| 71>      1       0.3036241130      1.0000000000
| 72>     p 1
| 73>      1       0.0880000000      1.0000000000
| 74>     p 1
| 75>      1       0.0300000000      1.0000000000
| 76>     d 4
| 77>      1      28.8409858920      0.0042040971
| 78>      2       8.4584163440     -0.0356382265
| 79>      3       2.8648941754      0.3415070565
| 80>      4       1.3966488847      0.7191878388
| 81>     d 1
| 82>      1       0.6392167723      1.0000000000
| 83>     d 1
| 84>      1       0.2750231984      1.0000000000
| 85>     d 1
| 86>      1       0.1082994007      1.0000000000
| 87>   end
| 88>   NewAuxGTO 46
| 89>     S 1
| 90>      1 1310.72 1.0
| 91>     S 1
| 92>      1  655.36 1.0
| 93>     S 1
| 94>      1  327.68 1.0
| 95>     S 1
| 96>      1  163.84 1.0
| 97>     S 1
| 98>      1   81.82 1.0
| 99>     S 1
|100>      1   40.96 1.0
|101>     S 1
|102>      1   20.48 1.0
|103>     S 1
|104>      1   10.24 1.0
|105>     S 1
|106>      1    5.12 1.0
|107>     S 1
|108>      1    2.56 1.0
|109>     S 1
|110>      1    1.28 1.0
|111>     S 1
|112>      1    0.64 1.0
|113>     S 1
|114>      1    0.32 1.0
|115>     S 1
|116>      1    0.16 1.0
|117>     S 1
|118>      1    0.08 1.0
|119>     S 1
|120>      1    0.04 1.0
|121>     S 1
|122>      1    0.02 1.0
|123>     S 1
|124>      1    0.01 1.0
|125>   end
|126> end
|127>
|128> * xyz 0 3
|129> 46  0.0 0.0 0.0
|130> *
|131>
|132>
|133>                          ****END OF INPUT****

CARTESIAN COORDINATES (ANGSTROEM)
---------------------------------
  Pd     0.000000    0.000000    0.000000

 Total Charge           Charge          ....    0
 Multiplicity           Mult            ....    3
 Number of Electrons    NEL             ....   18
 Basis Dimension        Dim             ....   42

ORBITAL ENERGIES
----------------

  NO   OCC          E(Eh)            E(eV)
   0   2.0000      -4.140038      -112.6562
   1   2.0000      -2.669732       -72.6471
   2   2.0000      -2.666580       -72.5613
   3   2.0000      -2.664406       -72.5022
   4   2.0000      -0.537319       -14.6212
   5   1.6000      -0.554186       -15.0802
   6   1.6000      -0.552415       -15.0320
   7   1.6000      -0.545942       -14.8558
   8   1.6000      -0.536568       -14.6007
   9   1.6000      -0.264492        -7.1972
  10   0.0000       0.005689         0.1548
  11   0.0000       0.006980         0.1899
  12   0.0000       0.007856         0.2138
  13   0.0000       0.093529         2.5450
  14   0.0000       0.147073         4.0021

CleanUpVectors: The p-vectors have cracked symmetry
CleanUpVectors: The p-vectors have cracked symmetry
CleanUpVectors: The p-vectors have cracked symmetry
CleanUpVectors: The d-vectors have cracked symmetry at i=4
CleanUpVectors: The d-vectors have cracked symmetry at i=5
CleanUpVectors: The d-vectors have cracked symmetry at i=6
CleanUpVectors: The d-vectors have cracked symmetry at i=7
CleanUpVectors: The d-vectors have cracked symmetry at i=8
CleanUpVectors: The p-vectors have cracked symmetry
CleanUpVectors: The p-vectors have cracked symmetry
CleanUpVectors: The p-vectors have cracked symmetry
CleanUpVectors: The p-vectors have cracked symmetry
CleanUpVectors: The p-vectors have cracked symmetry
CleanUpVectors: The p-vectors have cracked symmetry
CleanUpVectors: The d-vectors have cracked symmetry at i=17
CleanUpVectors: The d-vectors have cracked symmetry at i=18
CleanUpVectors: The d-vectors have cracked symmetry at i=19
CleanUpVectors: The d-vectors have cracked symmetry at i=20
CleanUpVectors: The d-vectors have cracked symmetry at i=21
CleanUpVectors: The p-vectors have cracked symmetry
CleanUpVectors: The p-vectors have cracked symmetry
CleanUpVectors: The p-vectors have cracked symmetry
CleanUpVectors: The d-vectors have cracked symmetry at i=26
CleanUpVectors: The d-vectors have cracked symmetry at i=27
CleanUpVectors: The d-vectors have cracked symmetry at i=28
CleanUpVectors: The d-vectors have cracked symmetry at i=29
CleanUpVectors: The d-vectors have cracked symmetry at i=30
CleanUpVectors: The d-vectors have cracked symmetry at i=32
CleanUpVectors: The d-vectors have cracked symmetry at i=33
CleanUpVectors: The d-vectors have cracked symmetry at i=34
CleanUpVectors: The d-vectors have cracked symmetry at i=35
CleanUpVectors: The d-vectors have cracked symmetry at i=36
CleanUpVectors: The p-vectors have cracked symmetry
CleanUpVectors: The p-vectors have cracked symmetry
CleanUpVectors: The p-vectors have cracked symmetry
--------------------------
ATOM BASIS FOR ELEMENT Pd
--------------------------
 NewGTO Pd
 S 9
    1         15.262399331000        -0.627539380666
    2         13.721983176000         0.999227603336
    3          4.844828626800        -0.513102401130
    4          8.730932658800        -0.399474768744
    5          1.435756409400         0.813000715574
    6          0.660884337200         0.512630989962
    7          0.208972127900         0.027672654401
    8          0.091936735900         0.000258697096
    9          0.034733479700         0.002863586144
 P 24
    1         12.585237008000        -0.005650561446
    2          7.205810483900         0.022622381494
    3          1.955870564000        -0.040894516357
    4          1.053441861800        -0.039632125166
    5         12.585237008000        -0.057424515914
    6          7.205810483900         0.229902695240
    7          1.955870564000        -0.415595481563
    8          1.053441861800        -0.402766277996
    9         12.585237008000        -0.018171845765
   10          7.205810483900         0.072752138218
   11          1.955870564000        -0.131514160310
   12          1.053441861800        -0.127454390632
   13          0.598093895500        -0.022233002881
   14          0.598093895500        -0.225945587870
   15          0.598093895500        -0.071499921397
   16          0.303624113000        -0.005489549662
   17          0.303624113000        -0.055788214131
   18          0.303624113000        -0.017654042121
   19          0.088000000000        -0.000288392368
   20          0.088000000000        -0.002930822416
   21          0.088000000000        -0.000927451491
   22          0.030000000000         0.000036897832
   23          0.030000000000         0.000374978693
   24          0.030000000000         0.000118661078
 D 24
    1         15.262399331000        -0.000025987207
    2         13.721983176000         0.000046024488
    3          4.844828626800        -0.000066937125
    4          8.730932658800        -0.000030415472
    5          1.435756409400         0.000541590757
    6          0.660884337200         0.000225217766
    7          0.208972127900        -0.002407346244
    8          0.091936735900        -0.000272016594
    9          0.034733479700         0.003124473418
   10         28.840985892000         0.001273853038
   11          8.458416344000        -0.010798481104
   12          2.864894175400         0.103477581764
   13          1.396648884700         0.217915902399
   14         28.840985892000        -0.000699616635
   15          8.458416344000         0.005930666090
   16          2.864894175400        -0.056831232035
   17          1.396648884700        -0.119682244233
   18         28.840985892000         0.001591267511
   19          8.458416344000        -0.013489210796
   20          2.864894175400         0.129261782247
   21          1.396648884700         0.272215463910
   22         28.840985892000         0.000282537686
   23          8.458416344000        -0.002395078379
   24          2.864894175400         0.022951090655
 S 9
    1         15.262399331000        -0.197116498668
    2         13.721983176000         0.313867547775
    3          4.844828626800        -0.161170680096
    4          8.730932658800        -0.140313647678
    5          1.435756409400        -0.015630425698
    6          0.660884337200         1.934027176304
    7          0.208972127900        -4.947549498437
    8          0.091936735900         4.546622946371
    9          0.034733479700        -1.385606094723
 S 9
    1         15.262399331000        -1.222403231792
    2         13.721983176000         1.946426135548
    3          4.844828626800        -0.999487924912
    4          8.730932658800        -0.814179756122
    5          1.435756409400         5.048740042368
    6          0.660884337200        -6.138026492301
    7          0.208972127900         4.173263744954
    8          0.091936735900        -2.453925319054
    9          0.034733479700         0.636632513403
 S 9
    1         15.262399331000        -4.171594769747
    2         13.721983176000         6.642408065991
    3          4.844828626800        -3.410870072614
    4          8.730932658800        -1.069761151625
    5          1.435756409400         3.498719365784
    6          0.660884337200        -2.628429951401
    7          0.208972127900         1.342371761742
    8          0.091936735900        -0.771307593082
    9          0.034733479700         0.203956986286
 S 9
    1         15.262399331000        -2.687155622330
    2         13.721983176000         4.278743541866
    3          4.844828626800        -2.197130641531
    4          8.730932658800         0.746384376779
    5          1.435756409400         1.401076851766
    6          0.660884337200        -0.981727784019
    7          0.208972127900         0.491366153920
    8          0.091936735900        -0.282626294230
    9          0.034733479700         0.074958380038
 D 24
    1         28.840985892000         0.000310937517
    2          8.458416344000        -0.002635824387
    3          2.864894175400         0.025258064616
    4          1.396648884700         0.053191559464
    5         28.840985892000         0.001780179957
    6          8.458416344000        -0.015090625887
    7          2.864894175400         0.144607510911
    8          1.396648884700         0.304532399161
    9         28.840985892000         0.000661217210
   10          8.458416344000        -0.005605153294
   11          2.864894175400         0.053711971407
   12          1.396648884700         0.113113319033
   13         28.840985892000        -0.000719107507
   14          8.458416344000         0.006095890656
   15          2.864894175400        -0.058414513826
   16          1.396648884700        -0.123016515042
   17         28.840985892000         0.000710386305
   18          8.458416344000        -0.006021960823
   19          2.864894175400         0.057706073422
   20          1.396648884700         0.121524593533
   21          0.639216772300         0.055261867815
   22          0.639216772300         0.316385331761
   23          0.639216772300         0.117515886872
   24          0.639216772300        -0.127804532558
 P 24
    1         12.585237008000        -0.001459469943
    2          7.205810483900         0.005843080575
    3          1.955870564000        -0.010562546398
    4          1.053441861800        -0.010236486410
    5         12.585237008000        -0.014832040277
    6          7.205810483900         0.059381014909
    7          1.955870564000        -0.107343158639
    8          1.053441861800        -0.104029534466
    9         12.585237008000        -0.004693562392
   10          7.205810483900         0.018790975024
   11          1.955870564000        -0.033968476558
   12          1.053441861800        -0.032919888400
   13          0.598093895500         0.000884631954
   14          0.598093895500         0.008990179512
   15          0.598093895500         0.002844920029
   16          0.303624113000        -0.017934140880
   17          0.303624113000        -0.182257881472
   18          0.303624113000        -0.057675054963
   19          0.088000000000         0.147581063398
   20          0.088000000000         1.499810453200
   21          0.088000000000         0.474611301433
   22          0.030000000000        -0.104143198486
   23          0.030000000000        -1.058367883533
   24          0.030000000000        -0.334917894143
 D 24
    1         15.262399331000         0.000027909348
    2         13.721983176000        -0.000049428685
    3          4.844828626800         0.000071888123
    4          8.730932658800         0.000032880786
    5          1.435756409400        -0.000520738053
    6          0.660884337200        -0.001038131818
    7          0.208972127900         0.005098167767
    8          0.091936735900         0.006633506077
    9          0.034733479700        -0.002325335146
   10         28.840985892000        -0.000274553567
   11          8.458416344000         0.002327396816
   12          2.864894175400        -0.022302524960
   13          1.396648884700        -0.046967418155
   14         28.840985892000         0.000064700403
   15          8.458416344000        -0.000548466782
   16          2.864894175400         0.005255740667
   17          1.396648884700         0.011068189368
   18         28.840985892000         0.000153699747
   19          8.458416344000        -0.001302916238
   20          2.864894175400         0.012485331991
   21          1.396648884700         0.026293157815
   22         28.840985892000         0.000551722656
   23          8.458416344000        -0.004676965475
   24          2.864894175400         0.044817513936
 P 24
    1         12.585237008000        -0.001971354861
    2          7.205810483900         0.007892444342
    3          1.955870564000        -0.014267184661
    4          1.053441861800        -0.013826764530
    5         12.585237008000        -0.020034132827
    6          7.205810483900         0.080207922702
    7          1.955870564000        -0.144991994225
    8          1.053441861800        -0.140516171238
    9         12.585237008000        -0.006339751689
   10          7.205810483900         0.025381598386
   11          1.955870564000        -0.045882357287
   12          1.053441861800        -0.044465994194
   13          0.598093895500        -0.121135431959
   14          0.598093895500        -1.231053516788
   15          0.598093895500        -0.389563834875
   16          0.303624113000         0.245846271280
   17          0.303624113000         2.498442544472
   18          0.303624113000         0.790625952135
   19          0.088000000000        -0.143648139725
   20          0.088000000000        -1.459841639468
   21          0.088000000000        -0.461963269367
   22          0.030000000000         0.051818374739
   23          0.030000000000         0.526610517047
   24          0.030000000000         0.166644593195
 D 24
    1         15.262399331000         0.000049996533
    2         13.721983176000        -0.000088546064
    3          4.844828626800         0.000128779682
    4          8.730932658800         0.000060002403
    5          1.435756409400        -0.001072340924
    6          0.660884337200        -0.001735183160
    7          0.208972127900         0.020813729218
    8          0.091936735900        -0.031731047484
    9          0.034733479700         0.022381028721
   10         28.840985892000        -0.000427428567
   11          8.458416344000         0.003623321658
   12          2.864894175400        -0.034720861156
   13          1.396648884700        -0.073119487931
   14         28.840985892000         0.000100619245
   15          8.458416344000        -0.000852951627
   16          2.864894175400         0.008173498740
   17          1.396648884700         0.017212765541
   18         28.840985892000         0.000239900139
   19          8.458416344000        -0.002033638918
   20          2.864894175400         0.019487558979
   21          1.396648884700         0.041039314295
   22         28.840985892000         0.000859691752
   23          8.458416344000        -0.007287626483
   24          2.864894175400         0.069834447829
 D 24
    1         15.262399331000         0.000325428864
    2         13.721983176000        -0.000576348859
    3          4.844828626800         0.000838230627
    4          8.730932658800         0.000382986151
    5          1.435756409400        -0.014028505384
    6          0.660884337200         0.035493690531
    7          0.208972127900        -0.070564300626
    8          0.091936735900         0.091638482240
    9          0.034733479700        -0.061628182493
   10         28.840985892000        -0.002253684981
   11          8.458416344000         0.019104538714
   12          2.864894175400        -0.183071253060
   13          1.396648884700        -0.385534109262
   14         28.840985892000         0.000526063981
   15          8.458416344000        -0.004459456301
   16          2.864894175400         0.042733209383
   17          1.396648884700         0.089992882772
   18         28.840985892000         0.001290682747
   19          8.458416344000        -0.010941146926
   20          2.864894175400         0.104844692021
   21          1.396648884700         0.220794932430
   22         28.840985892000         0.004564649010
   23          8.458416344000        -0.038694633220
   24          2.864894175400         0.370795395594
 P 24
    1         12.585237008000        -0.018294346750
    2          7.205810483900         0.073242578687
    3          1.955870564000        -0.132400730355
    4          1.053441861800        -0.128313592747
    5         12.585237008000        -0.185918517304
    6          7.205810483900         0.744336587656
    7          1.955870564000        -1.345538477785
    8          1.053441861800        -1.304002446223
    9         12.585237008000        -0.058833454101
   10          7.205810483900         0.235543468724
   11          1.955870564000        -0.425792317098
   12          1.053441861800        -0.412648342835
   13          0.598093895500         0.438262287597
   14          0.598093895500         4.453893643516
   15          0.598093895500         1.409423606899
   16          0.303624113000        -0.290593651284
   17          0.303624113000        -2.953193219967
   18          0.303624113000        -0.934530676550
   19          0.088000000000         0.083899503513
   20          0.088000000000         0.852638878516
   21          0.088000000000         0.269815460297
   22          0.030000000000        -0.027851524950
   23          0.030000000000        -0.283044499716
   24          0.030000000000        -0.089568730561
 end
  // -----------------------------------------------
  // The basis set
  // -----------------------------------------------
  BAS[ATNO] = new BFNGauss[NSH];
  // Basis function   1 L = s
  InitBFNGauss(BAS[ATNO][  0]);
  BAS[ATNO][  0].l  = 0;
  BAS[ATNO][  0].ng = 9;
  BAS[ATNO][  0].a[  0] =        15.262399331000;     BAS[ATNO][  0].d[  0] =        -0.627539380666;
  BAS[ATNO][  0].a[  1] =        13.721983176000;     BAS[ATNO][  0].d[  1] =         0.999227603336;
  BAS[ATNO][  0].a[  2] =         4.844828626800;     BAS[ATNO][  0].d[  2] =        -0.513102401130;
  BAS[ATNO][  0].a[  3] =         8.730932658800;     BAS[ATNO][  0].d[  3] =        -0.399474768744;
  BAS[ATNO][  0].a[  4] =         1.435756409400;     BAS[ATNO][  0].d[  4] =         0.813000715574;
  BAS[ATNO][  0].a[  5] =         0.660884337200;     BAS[ATNO][  0].d[  5] =         0.512630989962;
  BAS[ATNO][  0].a[  6] =         0.208972127900;     BAS[ATNO][  0].d[  6] =         0.027672654401;
  BAS[ATNO][  0].a[  7] =         0.091936735900;     BAS[ATNO][  0].d[  7] =         0.000258697096;
  BAS[ATNO][  0].a[  8] =         0.034733479700;     BAS[ATNO][  0].d[  8] =         0.002863586144;

FINAL SINGLE POINT ENERGY      -126.957092813357

DIPOLE MOMENT
-------------
                                X             Y             Z
Electronic contribution:      0.00000       0.00000       0.00000
Nuclear contribution   :      0.00000       0.00000       0.00000
                        -----------------------------------------
Total Dipole Moment    :      0.00000       0.00000       0.00000
                        -----------------------------------------
Magnitude (a.u.)       :      0.00000
Magnitude (Debye)      :      0.00000

Rotational constants in cm-1:     0.000000     0.000000     0.000000
Rotational constants in MHz :     0.000000     0.000000     0.000000

                             ****ORCA TERMINATED NORMALLY****
TOTAL RUN TIME: 0 days 0 hours 0 minutes 1 seconds 859 msec
