                         Program Version 4.2.0 -  RELEASE  -
|  1> #
|  2> # 46_Pd CCSD(T)/Def2-QZVP
|  3> #
|  4> ! CCSD(T) Def2-QZVP tightscf
|  5>
|  6> *xyz 0 1
|  7>  Pd 0.0 0.0 0.0
|  8> *
|  9>
| 10> %maxcore 5000
| 11>
| 12> %pal
| 13> nprocs 24
| 14> end
| 15>
| 16>
| 17>                          ****END OF INPUT****

CARTESIAN COORDINATES (ANGSTROEM)
---------------------------------
  Pd     0.000000    0.000000    0.000000

 Total Charge           Charge          ....    0
 Multiplicity           Mult            ....    1
 Number of Electrons    NEL             ....   18
 Basis Dimension        Dim             ....   72

ORBITAL ENERGIES
----------------

  NO   OCC          E(Eh)            E(eV)
   0   2.0000      -3.891103      -105.8823
   1   2.0000      -2.440333       -66.4048
   2   2.0000      -2.440333       -66.4048
   3   2.0000      -2.440333       -66.4048
   4   2.0000      -0.326172        -8.8756
   5   2.0000      -0.326172        -8.8756
   6   2.0000      -0.326172        -8.8756
   7   2.0000      -0.326172        -8.8756
   8   2.0000      -0.326172        -8.8756
   9   0.0000       0.024571         0.6686
  10   0.0000       0.062776         1.7082
  11   0.0000       0.062776         1.7082
  12   0.0000       0.062776         1.7082
  13   0.0000       0.194648         5.2966

E(0)                                       ...   -127.032374640
E(0)                                       ...   -127.032374640
E(CORR)                                    ...     -0.646041268
E(TOT)                                     ...   -127.678415908
E(CCSD(T))                                 ...   -127.702564820

MULLIKEN ATOMIC CHARGES
-----------------------
   0 Pd:   -0.000000
Sum of atomic charges:   -0.0000000

LOEWDIN ATOMIC CHARGES
----------------------
   0 Pd:   -0.000000

FINAL SINGLE POINT ENERGY      -127.702564819858

DIPOLE MOMENT
-------------
                                X             Y             Z
Electronic contribution:      0.00000       0.00000      -0.00000
Nuclear contribution   :      0.00000       0.00000       0.00000
                        -----------------------------------------
Total Dipole Moment    :      0.00000       0.00000      -0.00000
                        -----------------------------------------
Magnitude (a.u.)       :      0.00000
Magnitude (Debye)      :      0.00000

Rotational constants in cm-1:     0.000000     0.000000     0.000000
Rotational constants in MHz :     0.000000     0.000000     0.000000

                             ****ORCA TERMINATED NORMALLY****
TOTAL RUN TIME: 0 days 0 hours 0 minutes 15 seconds 356 msec
