                         Program Version 4.2.0 -  RELEASE  -
|  1> #
|  2> # 49_In CCSD(T)/Def2-QZVP
|  3> #
|  4> ! CCSD(T) Def2-QZVP tightscf
|  5>
|  6> *xyz 0 2
|  7>  In 0.0 0.0 0.0
|  8> *
|  9>
| 10> %maxcore 5000
| 11>
| 12> %pal
| 13> nprocs 24
| 14> end
| 15>
| 16>
| 17>                          ****END OF INPUT****

CARTESIAN COORDINATES (ANGSTROEM)
---------------------------------
  In     0.000000    0.000000    0.000000

 Total Charge           Charge          ....    0
 Multiplicity           Mult            ....    2
 Number of Electrons    NEL             ....   21
 Basis Dimension        Dim             ....   82

ORBITAL ENERGIES
----------------
                 SPIN UP ORBITALS
  NO   OCC          E(Eh)            E(eV)
   0   1.0000      -5.373546      -146.2216
   1   1.0000      -3.627282       -98.7034
   2   1.0000      -3.627282       -98.7034
   3   1.0000      -3.624232       -98.6204
   4   1.0000      -1.014806       -27.6143
   5   1.0000      -1.014806       -27.6143
   6   1.0000      -1.008204       -27.4346
   7   1.0000      -1.008204       -27.4346
   8   1.0000      -1.006166       -27.3792
   9   1.0000      -0.424419       -11.5490
  10   1.0000      -0.201611        -5.4861
  11   0.0000       0.010469         0.2849
  12   0.0000       0.010469         0.2849
  13   0.0000       0.092624         2.5204
  14   0.0000       0.105481         2.8703
  15   0.0000       0.107678         2.9301

                 SPIN DOWN ORBITALS
  NO   OCC          E(Eh)            E(eV)
   0   1.0000      -5.372737      -146.1996
   1   1.0000      -3.629075       -98.7522
   2   1.0000      -3.629075       -98.7522
   3   1.0000      -3.618030       -98.4516
   4   1.0000      -1.015621       -27.6365
   5   1.0000      -1.015621       -27.6365
   6   1.0000      -1.005393       -27.3581
   7   1.0000      -1.005393       -27.3581
   8   1.0000      -1.002192       -27.2710
   9   1.0000      -0.368841       -10.0367
  10   0.0000       0.018056         0.4913
  11   0.0000       0.018056         0.4913
  12   0.0000       0.042497         1.1564
  13   0.0000       0.111220         3.0265
  14   0.0000       0.111220         3.0265

E(0)                                       ...   -189.210659114
E(0)                                       ...   -189.210659114
E(CORR)                                    ...     -0.406896554
E(TOT)                                     ...   -189.617555667
E(CCSD(T))                                 ...   -189.627664721

MULLIKEN ATOMIC CHARGES AND SPIN DENSITIES
------------------------------------------
   0 In:   -0.000000    1.000000
Sum of atomic charges       :   -0.0000000

LOEWDIN ATOMIC CHARGES AND SPIN DENSITIES
-----------------------------------------
   0 In:   -0.000000    1.000000

FINAL SINGLE POINT ENERGY      -189.627664720602

DIPOLE MOMENT
-------------
                                X             Y             Z
Electronic contribution:      0.00000      -0.00000      -0.00000
Nuclear contribution   :      0.00000       0.00000       0.00000
                        -----------------------------------------
Total Dipole Moment    :      0.00000      -0.00000      -0.00000
                        -----------------------------------------
Magnitude (a.u.)       :      0.00000
Magnitude (Debye)      :      0.00000

Rotational constants in cm-1:     0.000000     0.000000     0.000000
Rotational constants in MHz :     0.000000     0.000000     0.000000

                             ****ORCA TERMINATED NORMALLY****
TOTAL RUN TIME: 0 days 0 hours 0 minutes 26 seconds 255 msec
