                         Program Version 4.2.0 -  RELEASE  -
|  1> # input to generate an atomic fitting density for In
|  2> # this file is use internally by ORCA
|  3> #
|  4> # atomic ground state (S=2): 1s2 2s2 2p6 3s2 3p6 4s2 3d10 4p6 5s2 4d10 5p1
|  5> #
|  6> ! RHF AllowRHF def2-SVP def2/J  NoMulliken NoLoewdin NoMayer NoPrintMOs
|  7>
|  8> %output print[p_atomdensfit] 2 end
|  9>
| 10> %scf
| 11>   guess hcore
| 12>   maxiter 1000
| 13>   maxdisk 500000
| 14>   SCFMode Conventional
| 15>   lshift 1.000000
| 16>   hftyp rohf
| 17>   rohf_case sahf
| 18>   rohf_numop   2
| 19>   rohf_norb[1] 3
| 20>   rohf_nel[1]  1
| 21> end
| 22>
| 23> %basis
| 24>   NewECP 49
| 25>     N_core 28
| 26>     lmax f
| 27>     s 4
| 28>       1      15.3928220000    281.1223500000  2
| 29>       2       8.0558640000     61.9014700000  2
| 30>       3      12.5390560000     13.7280780000  2
| 31>       4      12.5525610000     18.2068660000  2
| 32>     p 6
| 33>       1      13.9286720000     67.4621540000  2
| 34>       2      13.3472340000    134.9492500000  2
| 35>       3       7.6141320000     14.7461400000  2
| 36>       4       7.3183650000     29.6392620000  2
| 37>       5      12.5390560000     13.7280780000  2
| 38>       6      12.5525610000     18.2068660000  2
| 39>     d 6
| 40>       1      14.0347150000     35.4932540000  2
| 41>       2      14.5116160000     53.1787730000  2
| 42>       3       5.5505500000      9.1772810000  2
| 43>       4       5.0594150000     12.3924100000  2
| 44>       5      12.5390560000     13.7280780000  2
| 45>       6      12.5525610000     18.2068660000  2
| 46>     f 2
| 47>       1      12.5390560000    -13.7280780000  2
| 48>       2      12.5525610000    -18.2068660000  2
| 49>   end
| 50>   NewGTO 49
| 51>     s 9
| 52>      1    8931.8400000000      0.0000507998
| 53>      2    1352.2200000000      0.0003502510
| 54>      3     303.3930000000      0.0012780152
| 55>      4      45.1229000000      0.0313033509
| 56>      5      28.1822000000     -0.2334917695
| 57>      6      17.6048000000      0.6940237380
| 58>      7       6.9405800000     -1.6803252701
| 59>      8       4.3337700000     -0.4243598610
| 60>      9       1.9868400000      1.8031350428
| 61>     s 1
| 62>      1       1.0438672413      1.0000000000
| 63>     s 3
| 64>      1      20.2455442080      0.0652669088
| 65>      2      11.0722984160     -0.3245785096
| 66>      3       2.4929238916      1.1717562992
| 67>     s 1
| 68>      1       0.5324448416      1.0000000000
| 69>     s 1
| 70>      1       0.2121130741      1.0000000000
| 71>     s 1
| 72>      1       0.0954751965      1.0000000000
| 73>     s 1
| 74>      1       0.0423576449      1.0000000000
| 75>     p 7
| 76>      1     129.2330000000      0.0002845734
| 77>      2      29.6284000000     -0.0062942748
| 78>      3      18.5211000000      0.0478491362
| 79>      4       8.2853600000     -0.2446964355
| 80>      5       2.4993900000      0.4383971073
| 81>      6       1.3221600000      0.4958115829
| 82>      7       0.6887070000      0.2264725158
| 83>     p 3
| 84>      1      13.2486330340     -0.0188262283
| 85>      2       3.0240161259      0.3255462819
| 86>      3       1.0805448379      0.7438199030
| 87>     p 1
| 88>      1       0.3335358151      1.0000000000
| 89>     p 1
| 90>      1       0.1540376045      1.0000000000
| 91>     p 1
| 92>      1       0.0657704246      1.0000000000
| 93>     p 1
| 94>      1       0.0276421803      1.0000000000
| 95>   end
| 96>   NewAuxGTO 49
| 97>     S 1
| 98>      1 1310.72 1.0
| 99>     S 1
|100>      1  655.36 1.0
|101>     S 1
|102>      1  327.68 1.0
|103>     S 1
|104>      1  163.84 1.0
|105>     S 1
|106>      1   81.82 1.0
|107>     S 1
|108>      1   40.96 1.0
|109>     S 1
|110>      1   20.48 1.0
|111>     S 1
|112>      1   10.24 1.0
|113>     S 1
|114>      1    5.12 1.0
|115>     S 1
|116>      1    2.56 1.0
|117>     S 1
|118>      1    1.28 1.0
|119>     S 1
|120>      1    0.64 1.0
|121>     S 1
|122>      1    0.32 1.0
|123>     S 1
|124>      1    0.16 1.0
|125>     S 1
|126>      1    0.08 1.0
|127>     S 1
|128>      1    0.04 1.0
|129>     S 1
|130>      1    0.02 1.0
|131>     S 1
|132>      1    0.01 1.0
|133>   end
|134> end
|135>
|136> * xyz 0 2
|137> 49  0.0 0.0 0.0
|138> *
|139>
|140>
|141>                          ****END OF INPUT****

CARTESIAN COORDINATES (ANGSTROEM)
---------------------------------
  In     0.000000    0.000000    0.000000

 Total Charge           Charge          ....    0
 Multiplicity           Mult            ....    2
 Number of Electrons    NEL             ....   21
 Basis Dimension        Dim             ....   25

ORBITAL ENERGIES
----------------

  NO   OCC          E(Eh)            E(eV)
   0   2.0000      -9.055934      -246.4245
   1   2.0000      -6.994281      -190.3241
   2   2.0000      -6.993594      -190.3054
   3   2.0000      -6.986761      -190.1194
   4   2.0000      -2.148979       -58.4767
   5   2.0000      -1.386219       -37.7209
   6   2.0000      -1.384486       -37.6738
   7   2.0000      -1.367897       -37.2224
   8   2.0000      -0.358647        -9.7593
   9   2.0000      -0.184185        -5.0119
  10   0.3333      -0.202551        -5.5117
  11   0.3333      -0.202524        -5.5110
  12   0.3333      -0.016559        -0.4506
  13   0.0000      -0.015672        -0.4264
  14   0.0000      -0.002020        -0.0550
  15   0.0000      -0.004441        -0.1208
  16   0.0000       0.361037         9.8243
  17   0.0000       0.361903         9.8479

CleanUpVectors: The p-vectors have cracked symmetry
CleanUpVectors: The p-vectors have cracked symmetry
CleanUpVectors: The p-vectors have cracked symmetry
CleanUpVectors: The p-vectors have cracked symmetry
CleanUpVectors: The p-vectors have cracked symmetry
CleanUpVectors: The p-vectors have cracked symmetry
CleanUpVectors: The p-vectors have cracked symmetry
CleanUpVectors: The p-vectors have cracked symmetry
CleanUpVectors: The p-vectors have cracked symmetry
CleanUpVectors: The p-vectors have cracked symmetry
CleanUpVectors: The p-vectors have cracked symmetry
CleanUpVectors: The p-vectors have cracked symmetry
CleanUpVectors: The p-vectors have cracked symmetry
CleanUpVectors: The p-vectors have cracked symmetry
CleanUpVectors: The p-vectors have cracked symmetry
CleanUpVectors: The p-vectors have cracked symmetry
CleanUpVectors: The p-vectors have cracked symmetry
--------------------------
ATOM BASIS FOR ELEMENT In
--------------------------
 NewGTO In
 S 17
    1       8931.840000000000        -0.000020927068
    2       1352.220000000000        -0.000144286524
    3        303.393000000000        -0.000526480639
    4         45.122900000000        -0.012895471184
    5         28.182200000000         0.096187350513
    6         17.604800000000        -0.285904315574
    7          6.940580000000         0.692212989247
    8          4.333770000000         0.174815800920
    9          1.986840000000        -0.742804693950
   10          1.043867241300        -0.715190078219
   11         20.245544208000        -0.006529886455
   12         11.072298416000         0.032473742855
   13          2.492923891600        -0.117233001027
   14          0.532444841600         0.161962405375
   15          0.212113074100        -0.090240628587
   16          0.095475196500         0.046898199539
   17          0.042357644900        -0.013269367795
 P 31
    1        129.233000000000        -0.000133683158
    2         29.628400000000         0.002956841836
    3         18.521100000000        -0.022477939436
    4          8.285360000000         0.114950281117
    5          2.499390000000        -0.205944441414
    6          1.322160000000        -0.232915860498
    7          0.688707000000        -0.106389287213
    8        129.233000000000        -0.000265603273
    9         29.628400000000         0.005874688176
   10         18.521100000000        -0.044659434741
   11          8.285360000000         0.228384572021
   12          2.499390000000        -0.409172841122
   13          1.322160000000        -0.462759974138
   14          0.688707000000        -0.211375488531
   15        129.233000000000         0.000005469968
   16         29.628400000000        -0.000120986304
   17         18.521100000000         0.000919739023
   18          8.285360000000        -0.004703467574
   19          2.499390000000         0.008426712774
   20          1.322160000000         0.009530313339
   21          0.688707000000         0.004353173892
   22         13.248633034000         0.000466508624
   23          3.024016125900        -0.008066944989
   24          1.080544837900        -0.018431647274
   25         13.248633034000         0.000926864827
   26          3.024016125900        -0.016027501290
   27          1.080544837900        -0.036620213830
   28         13.248633034000        -0.000019088324
   29          3.024016125900         0.000330078481
   30          1.080544837900         0.000754175235
   31          0.333535815100         0.115231791832
 S 17
    1       8931.840000000000        -0.000012906276
    2       1352.220000000000        -0.000088985314
    3        303.393000000000        -0.000324694530
    4         45.122900000000        -0.007952978039
    5         28.182200000000         0.059321282280
    6         17.604800000000        -0.176324750799
    7          6.940580000000         0.426906052761
    8          4.333770000000         0.107813526603
    9          1.986840000000        -0.458107294709
   10          1.043867241300        -1.343520893646
   11         20.245544208000        -0.014422354315
   12         11.072298416000         0.071723731896
   13          2.492923891600        -0.258928832828
   14          0.532444841600         1.617697684826
   15          0.212113074100         0.441612005786
   16          0.095475196500        -0.005532534057
   17          0.042357644900        -0.001194993563
 P 31
    1        129.233000000000        -0.000062536170
    2         29.628400000000         0.001383192655
    3         18.521100000000        -0.010515043567
    4          8.285360000000         0.053773043453
    5          2.499390000000        -0.096339559064
    6          1.322160000000        -0.108956625124
    7          0.688707000000        -0.049768262493
    8        129.233000000000        -0.000124247598
    9         29.628400000000         0.002748143454
   10         18.521100000000        -0.020891412373
   11          8.285360000000         0.106836915903
   12          2.499390000000        -0.191408570334
   13          1.322160000000        -0.216476305746
   14          0.688707000000        -0.098880169936
   15        129.233000000000         0.000002558818
   16         29.628400000000        -0.000056596658
   17         18.521100000000         0.000430248330
   18          8.285360000000        -0.002200253569
   19          2.499390000000         0.003941965065
   20          1.322160000000         0.004458222707
   21          0.688707000000         0.002036388312
   22         13.248633034000         0.001903046629
   23          3.024016125900        -0.032907799927
   24          1.080544837900        -0.075188929840
   25         13.248633034000         0.003780995450
   26          3.024016125900        -0.065381604380
   27          1.080544837900        -0.149386251146
   28         13.248633034000        -0.000077867736
   29          3.024016125900         0.001346501883
   30          1.080544837900         0.003076536135
   31          0.333535815100         0.674119099309
 S 17
    1       8931.840000000000         0.000003868785
    2       1352.220000000000         0.000026674235
    3        303.393000000000         0.000097330421
    4         45.122900000000         0.002383984417
    5         28.182200000000        -0.017782145491
    6         17.604800000000         0.052855101102
    7          6.940580000000        -0.127969343370
    8          4.333770000000        -0.032318178945
    9          1.986840000000         0.137322226560
   10          1.043867241300         0.417136624398
   11         20.245544208000         0.007727287860
   12         11.072298416000        -0.038428533281
   13          2.492923891600         0.138730305948
   14          0.532444841600        -0.419590043002
   15          0.212113074100        -2.293304213178
   16          0.095475196500         4.879322825990
   17          0.042357644900        -2.993587587683
 S 17
    1       8931.840000000000        -0.000012736314
    2       1352.220000000000        -0.000087813469
    3        303.393000000000        -0.000320418636
    4         45.122900000000        -0.007848245464
    5         28.182200000000         0.058540081757
    6         17.604800000000        -0.174002734448
    7          6.940580000000         0.421284137344
    8          4.333770000000         0.106393732896
    9          1.986840000000        -0.452074490896
   10          1.043867241300        -3.246876629734
   11         20.245544208000        -0.007174985378
   12         11.072298416000         0.035681880808
   13          2.492923891600        -0.128814654598
   14          0.532444841600         7.753901700066
   15          0.212113074100        -8.831230665601
   16          0.095475196500         6.245753944479
   17          0.042357644900        -1.931401939813
 S 17
    1       8931.840000000000        -0.000008396645
    2       1352.220000000000        -0.000057892616
    3        303.393000000000        -0.000211241777
    4         45.122900000000        -0.005174097669
    5         28.182200000000         0.038593606934
    6         17.604800000000        -0.114714447556
    7          6.940580000000         0.277739181701
    8          4.333770000000         0.070141991338
    9          1.986840000000        -0.298038278776
   10          1.043867241300        -9.582410236414
   11         20.245544208000         0.285123356376
   12         11.072298416000        -1.417945414703
   13          2.492923891600         5.118904740944
   14          0.532444841600         8.937900783030
   15          0.212113074100        -5.060936353407
   16          0.095475196500         2.664546756566
   17          0.042357644900        -0.744424627448
 P 31
    1        129.233000000000         0.000013658398
    2         29.628400000000        -0.000302100301
    3         18.521100000000         0.002296569329
    4          8.285360000000        -0.011744461308
    5          2.499390000000         0.021041327610
    6          1.322160000000         0.023796995406
    7          0.688707000000         0.010869785225
    8        129.233000000000        -0.000009733504
    9         29.628400000000         0.000215288385
   10         18.521100000000        -0.001636624328
   11          8.285360000000         0.008369558389
   12          2.499390000000        -0.014994865698
   13          1.322160000000        -0.016958661390
   14          0.688707000000        -0.007746230306
   15        129.233000000000        -0.000138822137
   16         29.628400000000         0.003070507225
   17         18.521100000000        -0.023342024786
   18          8.285360000000         0.119369140512
   19          2.499390000000        -0.213861251367
   20          1.322160000000        -0.241869491828
   21          0.688707000000        -0.110479049298
   22         13.248633034000        -0.000417594793
   23          3.024016125900         0.007221118851
   24          1.080544837900         0.016499073165
   25         13.248633034000         0.000297594237
   26          3.024016125900        -0.005146049212
   27          1.080544837900        -0.011757879105
   28         13.248633034000         0.004244377853
   29          3.024016125900        -0.073394490236
   30          1.080544837900        -0.167694382161
   31          0.333535815100        -0.148609392439
 P 31
    1        129.233000000000        -0.000040295538
    2         29.628400000000         0.000891268080
    3         18.521100000000        -0.006775428326
    4          8.285360000000         0.034648967402
    5          2.499390000000        -0.062076944639
    6          1.322160000000        -0.070206823153
    7          0.688707000000        -0.032068463937
    8        129.233000000000         0.000020170733
    9         29.628400000000        -0.000446141957
   10         18.521100000000         0.003391575348
   11          8.285360000000        -0.017344229473
   12          2.499390000000         0.031073848761
   13          1.322160000000         0.035143421078
   14          0.688707000000         0.016052507162
   15        129.233000000000        -0.000005378857
   16         29.628400000000         0.000118971072
   17         18.521100000000        -0.000904419210
   18          8.285360000000         0.004625123344
   19          2.499390000000        -0.008286351579
   20          1.322160000000        -0.009371569804
   21          0.688707000000        -0.004280664397
   22         13.248633034000         0.001521708726
   23          3.024016125900        -0.026313641260
   24          1.080544837900        -0.060122357949
   25         13.248633034000        -0.000761721555
   26          3.024016125900         0.013171816262
   27          1.080544837900         0.030095441536
   28         13.248633034000         0.000203125550
   29          3.024016125900        -0.003512480907
   30          1.080544837900        -0.008025443241
   31          0.333535815100         0.705404176538
 P 31
    1        129.233000000000         0.000002841317
    2         29.628400000000        -0.000062845055
    3         18.521100000000         0.000477748700
    4          8.285360000000        -0.002443166446
    5          2.499390000000         0.004377166755
    6          1.322160000000         0.004950420386
    7          0.688707000000         0.002261210100
    8        129.233000000000        -0.000002024833
    9         29.628400000000         0.000044785822
   10         18.521100000000        -0.000340462243
   11          8.285360000000         0.001741095116
   12          2.499390000000        -0.003119338705
   13          1.322160000000        -0.003527861465
   14          0.688707000000        -0.001611425971
   15        129.233000000000        -0.000028878769
   16         29.628400000000         0.000638748771
   17         18.521100000000        -0.004855774159
   18          8.285360000000         0.024832018354
   19          2.499390000000        -0.044488939909
   20          1.322160000000        -0.050315413469
   21          0.688707000000        -0.022982638294
   22         13.248633034000        -0.000105150915
   23          3.024016125900         0.001818287172
   24          1.080544837900         0.004154488203
   25         13.248633034000         0.000074934618
   26          3.024016125900        -0.001295781922
   27          1.080544837900        -0.002960649337
   28         13.248633034000         0.001068739895
   29          3.024016125900        -0.018480828637
   30          1.080544837900        -0.042225664763
   31          0.333535815100        -0.040429261468
 P 31
    1        129.233000000000         0.000008568927
    2         29.628400000000        -0.000189529942
    3         18.521100000000         0.001440808398
    4          8.285360000000        -0.007368172284
    5          2.499390000000         0.013200786554
    6          1.322160000000         0.014929621496
    7          0.688707000000         0.006819423056
    8        129.233000000000        -0.000006106549
    9         29.628400000000         0.000135066383
   10         18.521100000000        -0.001026775916
   11          8.285360000000         0.005250845189
   12          2.499390000000        -0.009407392212
   13          1.322160000000        -0.010639427008
   14          0.688707000000        -0.004859785217
   15        129.233000000000        -0.000087093430
   16         29.628400000000         0.001926357083
   17         18.521100000000        -0.014644184656
   18          8.285360000000         0.074889121743
   19          2.499390000000        -0.134171036343
   20          1.322160000000        -0.151742684431
   21          0.688707000000        -0.069311707678
   22         13.248633034000        -0.000385217950
   23          3.024016125900         0.006661253090
   24          1.080544837900         0.015219871652
   25         13.248633034000         0.000274521244
   26          3.024016125900        -0.004747067168
   27          1.080544837900        -0.010846270521
   28         13.248633034000         0.003915303940
   29          3.024016125900        -0.067704089209
   30          1.080544837900        -0.154692748367
   31          0.333535815100        -0.259148799415
 P 31
    1        129.233000000000         0.000170182572
    2         29.628400000000        -0.003764146165
    3         18.521100000000         0.028615074530
    4          8.285360000000        -0.146335070918
    5          2.499390000000         0.262173299157
    6          1.322160000000         0.296508704744
    7          0.688707000000         0.135436675213
    8        129.233000000000        -0.000121278698
    9         29.628400000000         0.002682476478
   10         18.521100000000        -0.020392211401
   11          8.285360000000         0.104284044356
   12          2.499390000000        -0.186834856379
   13          1.322160000000        -0.211303597445
   14          0.688707000000        -0.096517425089
   15        129.233000000000        -0.001729712999
   16         29.628400000000         0.038258280435
   17         18.521100000000        -0.290839807522
   18          8.285360000000         1.487330176761
   19          2.499390000000        -2.664694505090
   20          1.322160000000        -3.013674995829
   21          0.688707000000        -1.376560333901
   22         13.248633034000         0.011198916705
   23          3.024016125900        -0.193653536786
   24          1.080544837900        -0.442466595247
   25         13.248633034000        -0.007980782181
   26          3.024016125900         0.138005017479
   27          1.080544837900         0.315318848416
   28         13.248633034000        -0.113824298290
   29          3.024016125900         1.968268763543
   30          1.080544837900         4.497171561081
   31          0.333535815100        -0.021369324698
 end
  // -----------------------------------------------
  // The basis set
  // -----------------------------------------------
  BAS[ATNO] = new BFNGauss[NSH];
  // Basis function   1 L = s
  InitBFNGauss(BAS[ATNO][  0]);
  BAS[ATNO][  0].l  = 0;
  BAS[ATNO][  0].ng = 17;
  BAS[ATNO][  0].a[  0] =      8931.840000000000;     BAS[ATNO][  0].d[  0] =         0.000020927068;
  BAS[ATNO][  0].a[  1] =      1352.220000000000;     BAS[ATNO][  0].d[  1] =         0.000144286524;
  BAS[ATNO][  0].a[  2] =       303.393000000000;     BAS[ATNO][  0].d[  2] =         0.000526480639;
  BAS[ATNO][  0].a[  3] =        45.122900000000;     BAS[ATNO][  0].d[  3] =         0.012895471184;
  BAS[ATNO][  0].a[  4] =        28.182200000000;     BAS[ATNO][  0].d[  4] =        -0.096187350513;
  BAS[ATNO][  0].a[  5] =        17.604800000000;     BAS[ATNO][  0].d[  5] =         0.285904315574;
  BAS[ATNO][  0].a[  6] =         6.940580000000;     BAS[ATNO][  0].d[  6] =        -0.692212989247;
  BAS[ATNO][  0].a[  7] =         4.333770000000;     BAS[ATNO][  0].d[  7] =        -0.174815800920;
  BAS[ATNO][  0].a[  8] =         1.986840000000;     BAS[ATNO][  0].d[  8] =         0.742804693950;
  BAS[ATNO][  0].a[  9] =         1.043867241300;     BAS[ATNO][  0].d[  9] =         0.715190078219;
  BAS[ATNO][  0].a[ 10] =        20.245544208000;     BAS[ATNO][  0].d[ 10] =         0.006529886455;
  BAS[ATNO][  0].a[ 11] =        11.072298416000;     BAS[ATNO][  0].d[ 11] =        -0.032473742855;
  BAS[ATNO][  0].a[ 12] =         2.492923891600;     BAS[ATNO][  0].d[ 12] =         0.117233001027;
  BAS[ATNO][  0].a[ 13] =         0.532444841600;     BAS[ATNO][  0].d[ 13] =        -0.161962405375;
  BAS[ATNO][  0].a[ 14] =         0.212113074100;     BAS[ATNO][  0].d[ 14] =         0.090240628587;
  BAS[ATNO][  0].a[ 15] =         0.095475196500;     BAS[ATNO][  0].d[ 15] =        -0.046898199539;
  BAS[ATNO][  0].a[ 16] =         0.042357644900;     BAS[ATNO][  0].d[ 16] =         0.013269367795;

FINAL SINGLE POINT ENERGY      -170.479944274257

DIPOLE MOMENT
-------------
                                X             Y             Z
Electronic contribution:     -0.00000      -0.00000      -0.00000
Nuclear contribution   :      0.00000       0.00000       0.00000
                        -----------------------------------------
Total Dipole Moment    :     -0.00000      -0.00000      -0.00000
                        -----------------------------------------
Magnitude (a.u.)       :      0.00000
Magnitude (Debye)      :      0.00000

Rotational constants in cm-1:     0.000000     0.000000     0.000000
Rotational constants in MHz :     0.000000     0.000000     0.000000

                             ****ORCA TERMINATED NORMALLY****
TOTAL RUN TIME: 0 days 0 hours 0 minutes 1 seconds 941 msec
