                         Program Version 4.2.0 -  RELEASE  -
|  1> #
|  2> # 50_Sn CCSD(T)/Def2-QZVP
|  3> #
|  4> ! CCSD(T) Def2-QZVP tightscf
|  5>
|  6> *xyz 0 3
|  7>  Sn 0.0 0.0 0.0
|  8> *
|  9>
| 10> %maxcore 5000
| 11>
| 12> %pal
| 13> nprocs 24
| 14> end
| 15>
| 16>
| 17>                          ****END OF INPUT****

CARTESIAN COORDINATES (ANGSTROEM)
---------------------------------
  Sn     0.000000    0.000000    0.000000

 Total Charge           Charge          ....    0
 Multiplicity           Mult            ....    3
 Number of Electrons    NEL             ....   22
 Basis Dimension        Dim             ....   82

ORBITAL ENERGIES
----------------
                 SPIN UP ORBITALS
  NO   OCC          E(Eh)            E(eV)
   0   1.0000      -5.859638      -159.4488
   1   1.0000      -4.047423      -110.1360
   2   1.0000      -4.044615      -110.0596
   3   1.0000      -4.044615      -110.0596
   4   1.0000      -1.314781       -35.7770
   5   1.0000      -1.312036       -35.7023
   6   1.0000      -1.312036       -35.7023
   7   1.0000      -1.304245       -35.4903
   8   1.0000      -1.304245       -35.4903
   9   1.0000      -0.573870       -15.6158
  10   1.0000      -0.267031        -7.2663
  11   1.0000      -0.267031        -7.2663
  12   0.0000      -0.016782        -0.4567
  13   0.0000       0.116476         3.1695
  14   0.0000       0.116476         3.1695
  15   0.0000       0.119703         3.2573
  16   0.0000       0.127702         3.4749

                 SPIN DOWN ORBITALS
  NO   OCC          E(Eh)            E(eV)
   0   1.0000      -5.854145      -159.2994
   1   1.0000      -4.049804      -110.2008
   2   1.0000      -4.034913      -109.7956
   3   1.0000      -4.034913      -109.7956
   4   1.0000      -1.312466       -35.7140
   5   1.0000      -1.307953       -35.5912
   6   1.0000      -1.307953       -35.5912
   7   1.0000      -1.294970       -35.2379
   8   1.0000      -1.294970       -35.2379
   9   1.0000      -0.441743       -12.0204
  10   0.0000       0.003356         0.0913
  11   0.0000       0.036034         0.9805
  12   0.0000       0.036034         0.9805
  13   0.0000       0.134398         3.6572
  14   0.0000       0.137648         3.7456

E(0)                                       ...   -213.340663584
E(0)                                       ...   -213.340663584
E(CORR)                                    ...     -0.442012954
E(TOT)                                     ...   -213.782676538
E(CCSD(T))                                 ...   -213.792504630

MULLIKEN ATOMIC CHARGES AND SPIN DENSITIES
------------------------------------------
   0 Sn:   -0.000000    2.000000
Sum of atomic charges       :   -0.0000000

LOEWDIN ATOMIC CHARGES AND SPIN DENSITIES
-----------------------------------------
   0 Sn:   -0.000000    2.000000

FINAL SINGLE POINT ENERGY      -213.792504630041

DIPOLE MOMENT
-------------
                                X             Y             Z
Electronic contribution:      0.00000       0.00000      -0.00000
Nuclear contribution   :      0.00000       0.00000       0.00000
                        -----------------------------------------
Total Dipole Moment    :      0.00000       0.00000      -0.00000
                        -----------------------------------------
Magnitude (a.u.)       :      0.00000
Magnitude (Debye)      :      0.00000

Rotational constants in cm-1:     0.000000     0.000000     0.000000
Rotational constants in MHz :     0.000000     0.000000     0.000000

                             ****ORCA TERMINATED NORMALLY****
TOTAL RUN TIME: 0 days 0 hours 0 minutes 24 seconds 205 msec
