                         Program Version 4.2.0 -  RELEASE  -
|  1> # input to generate an atomic fitting density for Sn
|  2> # this file is use internally by ORCA
|  3> #
|  4> # atomic ground state (S=3): 1s2 2s2 2p6 3s2 3p6 4s2 3d10 4p6 5s2 4d10 5p2
|  5> #
|  6> ! RHF AllowRHF def2-SVP def2/J  NoMulliken NoLoewdin NoMayer NoPrintMOs
|  7>
|  8> %output print[p_atomdensfit] 2 end
|  9>
| 10> %scf
| 11>   guess hcore
| 12>   maxiter 1000
| 13>   maxdisk 500000
| 14>   SCFMode Conventional
| 15>   lshift 1.000000
| 16>   hftyp rohf
| 17>   rohf_case sahf
| 18>   rohf_numop   2
| 19>   rohf_norb[1] 3
| 20>   rohf_nel[1]  2
| 21> end
| 22>
| 23> %basis
| 24>   NewECP 50
| 25>     N_core 28
| 26>     lmax f
| 27>     s 4
| 28>       1      17.4204140000    279.9886820000  2
| 29>       2       7.6311550000     62.3778100000  2
| 30>       3      12.2823480000     12.5763330000  2
| 31>       4      12.2721500000     16.5959440000  2
| 32>     p 6
| 33>       1      16.1310240000     66.1625230000  2
| 34>       2      15.6280770000    132.1743960000  2
| 35>       3       7.3256080000     16.3394170000  2
| 36>       4       6.9425190000     32.4889590000  2
| 37>       5      12.2823480000     12.5763330000  2
| 38>       6      12.2721500000     16.5959440000  2
| 39>     d 6
| 40>       1      15.5149760000     36.3874410000  2
| 41>       2      15.1881600000     54.5078410000  2
| 42>       3       5.4560240000      8.6968230000  2
| 43>       4       5.3631050000     12.8402080000  2
| 44>       5      12.2823480000     12.5763330000  2
| 45>       6      12.2721500000     16.5959440000  2
| 46>     f 2
| 47>       1      12.2823480000    -12.5763330000  2
| 48>       2      12.2721500000    -16.5959440000  2
| 49>   end
| 50>   NewGTO 50
| 51>     s 9
| 52>      1   11606.9000000000      0.0000828924
| 53>      2    1754.8000000000      0.0005888217
| 54>      3     397.1780000000      0.0023066947
| 55>      4      90.2990000000      0.0070630020
| 56>      5      31.4890000000     -0.1144057683
| 57>      6      19.6685000000      0.4663467808
| 58>      7       7.0675900000     -1.5920566652
| 59>      8       4.4149000000     -0.4857264463
| 60>      9       2.1635600000      1.8608709182
| 61>     s 1
| 62>      1       1.1440977736      1.0000000000
| 63>     s 3
| 64>      1      20.1979612740      0.0499208536
| 65>      2      10.8801084260     -0.3194632558
| 66>      3       2.7745387028      1.1876917909
| 67>     s 1
| 68>      1       0.5855005628      1.0000000000
| 69>     s 1
| 70>      1       0.2531708984      1.0000000000
| 71>     s 1
| 72>      1       0.1159946163      1.0000000000
| 73>     s 1
| 74>      1       0.0522335841      1.0000000000
| 75>     p 7
| 76>      1     195.4950000000      0.0002650612
| 77>      2      18.2563000000      0.0455545616
| 78>      3      11.4094000000     -0.1121290896
| 79>      4       6.9056700000     -0.1423994850
| 80>      5       2.9820600000      0.3531508462
| 81>      6       1.6084300000      0.5324554746
| 82>      7       0.8317670000      0.2863338591
| 83>     p 3
| 84>      1      13.3040657450     -0.0211092895
| 85>      2       3.4193503621      0.3432869091
| 86>      3       1.2382899573      0.7282784653
| 87>     p 1
| 88>      1       0.3926530032      1.0000000000
| 89>     p 1
| 90>      1       0.1931305975      1.0000000000
| 91>     p 1
| 92>      1       0.0864435187      1.0000000000
| 93>     p 1
| 94>      1       0.0373506847      1.0000000000
| 95>   end
| 96>   NewAuxGTO 50
| 97>     S 1
| 98>      1 1310.72 1.0
| 99>     S 1
|100>      1  655.36 1.0
|101>     S 1
|102>      1  327.68 1.0
|103>     S 1
|104>      1  163.84 1.0
|105>     S 1
|106>      1   81.82 1.0
|107>     S 1
|108>      1   40.96 1.0
|109>     S 1
|110>      1   20.48 1.0
|111>     S 1
|112>      1   10.24 1.0
|113>     S 1
|114>      1    5.12 1.0
|115>     S 1
|116>      1    2.56 1.0
|117>     S 1
|118>      1    1.28 1.0
|119>     S 1
|120>      1    0.64 1.0
|121>     S 1
|122>      1    0.32 1.0
|123>     S 1
|124>      1    0.16 1.0
|125>     S 1
|126>      1    0.08 1.0
|127>     S 1
|128>      1    0.04 1.0
|129>     S 1
|130>      1    0.02 1.0
|131>     S 1
|132>      1    0.01 1.0
|133>   end
|134> end
|135>
|136> * xyz 0 3
|137> 50  0.0 0.0 0.0
|138> *
|139>
|140>
|141>                          ****END OF INPUT****

CARTESIAN COORDINATES (ANGSTROEM)
---------------------------------
  Sn     0.000000    0.000000    0.000000

 Total Charge           Charge          ....    0
 Multiplicity           Mult            ....    3
 Number of Electrons    NEL             ....   22
 Basis Dimension        Dim             ....   25

ORBITAL ENERGIES
----------------

  NO   OCC          E(Eh)            E(eV)
   0   2.0000      -9.809672      -266.9348
   1   2.0000      -7.678863      -208.9525
   2   2.0000      -7.677107      -208.9047
   3   2.0000      -7.671650      -208.7562
   4   2.0000      -2.448715       -66.6329
   5   2.0000      -1.635159       -44.4949
   6   2.0000      -1.630983       -44.3813
   7   2.0000      -1.618769       -44.0489
   8   2.0000      -0.436896       -11.8885
   9   2.0000      -0.232256        -6.3200
  10   0.6667      -0.265778        -7.2322
  11   0.6667      -0.265758        -7.2316
  12   0.6667       0.003831         0.1042
  13   0.0000       0.063937         1.7398
  14   0.0000       0.080559         2.1921
  15   0.0000       0.076368         2.0781
  16   0.0000       0.579519        15.7695
  17   0.0000       0.581122        15.8131

CleanUpVectors: The p-vectors have cracked symmetry
CleanUpVectors: The p-vectors have cracked symmetry
CleanUpVectors: The p-vectors have cracked symmetry
CleanUpVectors: The p-vectors have cracked symmetry
CleanUpVectors: The p-vectors have cracked symmetry
CleanUpVectors: The p-vectors have cracked symmetry
CleanUpVectors: The p-vectors have cracked symmetry
CleanUpVectors: The p-vectors have cracked symmetry
CleanUpVectors: The p-vectors have cracked symmetry
CleanUpVectors: The p-vectors have cracked symmetry
CleanUpVectors: The p-vectors have cracked symmetry
CleanUpVectors: The p-vectors have cracked symmetry
CleanUpVectors: The p-vectors have cracked symmetry
CleanUpVectors: The p-vectors have cracked symmetry
CleanUpVectors: The p-vectors have cracked symmetry
CleanUpVectors: The p-vectors have cracked symmetry
CleanUpVectors: The p-vectors have cracked symmetry
--------------------------
ATOM BASIS FOR ELEMENT Sn
--------------------------
 NewGTO Sn
 S 17
    1      11606.900000000000        -0.000032194529
    2       1754.800000000000        -0.000228692103
    3        397.178000000000        -0.000895895756
    4         90.299000000000        -0.002743195064
    5         31.489000000000         0.044433986982
    6         19.668500000000        -0.181124143433
    7          7.067590000000         0.618337922878
    8          4.414900000000         0.188650999966
    9          2.163560000000        -0.722742527609
   10          1.144097773600        -0.734737753104
   11         20.197961274000        -0.005490821029
   12         10.880108426000         0.035137932072
   13          2.774538702800        -0.130634846774
   14          0.585500562800         0.164488554659
   15          0.253170898400        -0.098419634876
   16          0.115994616300         0.047969028729
   17          0.052233584100        -0.013075348896
 P 31
    1        195.495000000000         0.000010211231
    2         18.256300000000         0.001754946197
    3         11.409400000000        -0.004319666625
    4          6.905670000000        -0.005485804843
    5          2.982060000000         0.013604800764
    6          1.608430000000         0.020512341186
    7          0.831767000000         0.011030739829
    8        195.495000000000         0.000011321340
    9         18.256300000000         0.001945734281
   10         11.409400000000        -0.004789276987
   11          6.905670000000        -0.006082191329
   12          2.982060000000         0.015083839766
   13          1.608430000000         0.022742329937
   14          0.831767000000         0.012229941105
   15        195.495000000000        -0.000273108765
   16         18.256300000000        -0.046937650862
   17         11.409400000000         0.115533458653
   18          6.905670000000         0.146722898324
   19          2.982060000000        -0.363872914989
   20          1.608430000000        -0.548621439618
   21          0.831767000000        -0.295027286758
   22         13.304065745000        -0.000058674501
   23          3.419350362100         0.000954185972
   24          1.238289957300         0.002024292442
   25         13.304065745000        -0.000065053269
   26          3.419350362100         0.001057919815
   27          1.238289957300         0.002244362366
   28         13.304065745000         0.001569303506
   29          3.419350362100        -0.025520581831
   30          1.238289957300        -0.054141564030
   31          0.392653003200        -0.010291211553
 S 17
    1      11606.900000000000        -0.000020862749
    2       1754.800000000000        -0.000148197413
    3        397.178000000000        -0.000580559764
    4         90.299000000000        -0.001777649541
    5         31.489000000000         0.028794181501
    6         19.668500000000        -0.117372349735
    7          7.067590000000         0.400696304551
    8          4.414900000000         0.122249915037
    9          2.163560000000        -0.468352739238
   10          1.144097773600        -1.357715111895
   11         20.197961274000        -0.012950053846
   12         10.880108426000         0.082872508501
   13          2.774538702800        -0.308101154830
   14          0.585500562800         1.648672472010
   15          0.253170898400         0.395485155682
   16          0.115994616300         0.036691952347
   17          0.052233584100        -0.011043737036
 P 31
    1        195.495000000000         0.000005132127
    2         18.256300000000         0.000882029575
    3         11.409400000000        -0.002171048734
    4          6.905670000000        -0.002757145561
    5          2.982060000000         0.006837723381
    6          1.608430000000         0.010309428073
    7          0.831767000000         0.005544009718
    8        195.495000000000         0.000005690064
    9         18.256300000000         0.000977918973
   10         11.409400000000        -0.002407073194
   11          6.905670000000        -0.003056887240
   12          2.982060000000         0.007581083004
   13          1.608430000000         0.011430212309
   14          0.831767000000         0.006146723917
   15        195.495000000000        -0.000137263472
   16         18.256300000000        -0.023590692603
   17         11.409400000000         0.058066696104
   18          6.905670000000         0.073742395041
   19          2.982060000000        -0.182881203605
   20          1.608430000000        -0.275735140122
   21          0.831767000000        -0.148279641260
   22         13.304065745000        -0.000201647103
   23          3.419350362100         0.003279258193
   24          1.238289957300         0.006956901242
   25         13.304065745000        -0.000223569065
   26          3.419350362100         0.003635761082
   27          1.238289957300         0.007713217226
   28         13.304065745000         0.005393237304
   29          3.419350362100        -0.087706777816
   30          1.238289957300        -0.186068725172
   31          0.392653003200        -0.058530233984
 S 17
    1      11606.900000000000         0.000006434780
    2       1754.800000000000         0.000045709113
    3        397.178000000000         0.000179064340
    4         90.299000000000         0.000548287466
    5         31.489000000000        -0.008881103078
    6         19.668500000000         0.036201617209
    7          7.067590000000        -0.123588343143
    8          4.414900000000        -0.037706023932
    9          2.163560000000         0.144455884398
   10          1.144097773600         0.386854947817
   11         20.197961274000         0.007636496921
   12         10.880108426000        -0.048868959432
   13          2.774538702800         0.181683686287
   14          0.585500562800        -0.302772366220
   15          0.253170898400        -2.661849138752
   16          0.115994616300         5.278394812454
   17          0.052233584100        -3.136180879798
 S 17
    1      11606.900000000000        -0.000020696837
    2       1754.800000000000        -0.000147018869
    3        397.178000000000        -0.000575942848
    4         90.299000000000        -0.001763512738
    5         31.489000000000         0.028565195039
    6         19.668500000000        -0.116438943135
    7          7.067590000000         0.397509756987
    8          4.414900000000         0.121277719475
    9          2.163560000000        -0.464628152156
   10          1.144097773600        -3.586927947127
   11         20.197961274000        -0.006171831163
   12         10.880108426000         0.039495984854
   13          2.774538702800        -0.146837096703
   14          0.585500562800         9.043080760664
   15          0.253170898400       -10.326255570039
   16          0.115994616300         6.946148964600
   17          0.052233584100        -2.094793718583
 S 17
    1      11606.900000000000        -0.000010570279
    2       1754.800000000000        -0.000075085406
    3        397.178000000000        -0.000294145253
    4         90.299000000000        -0.000900660374
    5         31.489000000000         0.014588802623
    6         19.668500000000        -0.059467640836
    7          7.067590000000         0.203015991221
    8          4.414900000000         0.061938898353
    9          2.163560000000        -0.237294665605
   10          1.144097773600       -10.449810939043
   11         20.197961274000         0.226433499022
   12         10.880108426000        -1.449037378235
   13          2.774538702800         5.387191696045
   14          0.585500562800        10.501446737650
   15          0.253170898400        -6.315060681516
   16          0.115994616300         3.131631246550
   17          0.052233584100        -0.842997049215
 P 31
    1        195.495000000000        -0.000008423169
    2         18.256300000000        -0.001447642218
    3         11.409400000000         0.003563261248
    4          6.905670000000         0.004525200093
    5          2.982060000000        -0.011222500151
    6          1.608430000000        -0.016920479474
    7          0.831767000000        -0.009099176207
    8        195.495000000000        -0.000137619113
    9         18.256300000000        -0.023651814565
   10         11.409400000000         0.058217143166
   11          6.905670000000         0.073933456828
   12          2.982060000000        -0.183355037002
   13          1.608430000000        -0.276449552075
   14          0.831767000000        -0.148663824241
   15        195.495000000000        -0.000006019740
   16         18.256300000000        -0.001034578419
   17         11.409400000000         0.002546536113
   18          6.905670000000         0.003233999601
   19          2.982060000000        -0.008020321813
   20          1.608430000000        -0.012092465028
   21          0.831767000000        -0.006502857690
   22         13.304065745000         0.000332843312
   23          3.419350362100        -0.005412818454
   24          1.238289957300        -0.011483220047
   25         13.304065745000         0.005438048291
   26          3.419350362100        -0.088435510312
   27          1.238289957300        -0.187614721158
   28         13.304065745000         0.000237871280
   29          3.419350362100        -0.003868348882
   30          1.238289957300        -0.008206649052
   31          0.392653003200         0.096943854059
 P 31
    1        195.495000000000        -0.000051185557
    2         18.256300000000        -0.008796970726
    3         11.409400000000         0.021653074558
    4          6.905670000000         0.027498543658
    5          2.982060000000        -0.068196412101
    6          1.608430000000        -0.102821650753
    7          0.831767000000        -0.055293487369
    8        195.495000000000         0.000003210773
    9         18.256300000000         0.000551817385
   10         11.409400000000        -0.001358256535
   11          6.905670000000        -0.001724931789
   12          2.982060000000         0.004277832331
   13          1.608430000000         0.006449808258
   14          0.831767000000         0.003468456194
   15        195.495000000000        -0.000001780673
   16         18.256300000000        -0.000306034070
   17         11.409400000000         0.000753279593
   18          6.905670000000         0.000956635129
   19          2.982060000000        -0.002372455949
   20          1.608430000000        -0.003577018637
   21          0.831767000000        -0.001923581594
   22         13.304065745000         0.002500481687
   23          3.419350362100        -0.040663738561
   24          1.238289957300        -0.086267563160
   25         13.304065745000        -0.000156850501
   26          3.419350362100         0.002550759639
   27          1.238289957300         0.005411401560
   28         13.304065745000         0.000086988193
   29          3.419350362100        -0.001414633490
   30          1.238289957300        -0.003001125531
   31          0.392653003200         0.976589640586
 P 31
    1        195.495000000000        -0.000001937431
    2         18.256300000000        -0.000332975200
    3         11.409400000000         0.000819593137
    4          6.905670000000         0.001040850694
    5          2.982060000000        -0.002581310622
    6          1.608430000000        -0.003891914707
    7          0.831767000000        -0.002092920461
    8        195.495000000000        -0.000031654059
    9         18.256300000000        -0.005440203104
   10         11.409400000000         0.013390646291
   11          6.905670000000         0.017005588313
   12          2.982060000000        -0.042173873753
   13          1.608430000000        -0.063586736962
   14          0.831767000000        -0.034194475689
   15        195.495000000000        -0.000001384613
   16         18.256300000000        -0.000237965536
   17         11.409400000000         0.000585734073
   18          6.905670000000         0.000743858980
   19          2.982060000000        -0.001844770916
   20          1.608430000000        -0.002781413054
   21          0.831767000000        -0.001495735834
   22         13.304065745000         0.000096538583
   23          3.419350362100        -0.001569945393
   24          1.238289957300        -0.003330617601
   25         13.304065745000         0.001577263109
   26          3.419350362100        -0.025650023772
   27          1.238289957300        -0.054416173330
   28         13.304065745000         0.000068992693
   29          3.419350362100        -0.001121984149
   30          1.238289957300        -0.002380273970
   31          0.392653003200         0.028881260180
 P 31
    1        195.495000000000        -0.000005764627
    2         18.256300000000        -0.000990733733
    3         11.409400000000         0.002438615754
    4          6.905670000000         0.003096945036
    5          2.982060000000        -0.007680426373
    6          1.608430000000        -0.011579995103
    7          0.831767000000        -0.006227271282
    8        195.495000000000        -0.000094183422
    9         18.256300000000        -0.016186769250
   10         11.409400000000         0.039842501735
   11          6.905670000000         0.050598392873
   12          2.982060000000        -0.125484058173
   13          1.608430000000        -0.189195847803
   14          0.831767000000        -0.101742173405
   15        195.495000000000        -0.000004119774
   16         18.256300000000        -0.000708042171
   17         11.409400000000         0.001742791968
   18          6.905670000000         0.002213276497
   19          2.982060000000        -0.005488927631
   20          1.608430000000        -0.008275810743
   21          0.831767000000        -0.004450409359
   22         13.304065745000         0.000322721489
   23          3.419350362100        -0.005248213708
   24          1.238289957300        -0.011134013339
   25         13.304065745000         0.005272676302
   26          3.419350362100        -0.085746171146
   27          1.238289957300        -0.181909325035
   28         13.304065745000         0.000230637573
   29          3.419350362100        -0.003750711723
   30          1.238289957300        -0.007957083434
   31          0.392653003200         0.194931081857
 P 31
    1        195.495000000000        -0.000099551105
    2         18.256300000000        -0.017109282464
    3         11.409400000000         0.042113197868
    4          6.905670000000         0.053482086669
    5          2.982060000000        -0.132635621285
    6          1.608430000000        -0.199978460877
    7          0.831767000000        -0.107540643624
    8        195.495000000000        -0.001626482180
    9         18.256300000000        -0.279534245855
   10         11.409400000000         0.688052291557
   11          6.905670000000         0.873799050009
   12          2.982060000000        -2.167022401235
   13          1.608430000000        -3.267280691903
   14          0.831767000000        -1.757016565523
   15        195.495000000000        -0.000071145635
   16         18.256300000000        -0.012227395842
   17         11.409400000000         0.030096805145
   18          6.905670000000         0.038221745740
   19          2.982060000000        -0.094789962558
   20          1.608430000000        -0.142917495581
   21          0.831767000000        -0.076855474297
   22         13.304065745000        -0.007603884532
   23          3.419350362100         0.123657123473
   24          1.238289957300         0.262336889987
   25         13.304065745000        -0.124233504978
   26          3.419350362100         2.020330240413
   27          1.238289957300         4.286102871632
   28         13.304065745000        -0.005434225912
   29          3.419350362100         0.088373349410
   30          1.238289957300         0.187482847658
   31          0.392653003200         0.049239730590
 end
  // -----------------------------------------------
  // The basis set
  // -----------------------------------------------
  BAS[ATNO] = new BFNGauss[NSH];
  // Basis function   1 L = s
  InitBFNGauss(BAS[ATNO][  0]);
  BAS[ATNO][  0].l  = 0;
  BAS[ATNO][  0].ng = 17;
  BAS[ATNO][  0].a[  0] =     11606.900000000000;     BAS[ATNO][  0].d[  0] =         0.000032194529;
  BAS[ATNO][  0].a[  1] =      1754.800000000000;     BAS[ATNO][  0].d[  1] =         0.000228692103;
  BAS[ATNO][  0].a[  2] =       397.178000000000;     BAS[ATNO][  0].d[  2] =         0.000895895756;
  BAS[ATNO][  0].a[  3] =        90.299000000000;     BAS[ATNO][  0].d[  3] =         0.002743195064;
  BAS[ATNO][  0].a[  4] =        31.489000000000;     BAS[ATNO][  0].d[  4] =        -0.044433986982;
  BAS[ATNO][  0].a[  5] =        19.668500000000;     BAS[ATNO][  0].d[  5] =         0.181124143433;
  BAS[ATNO][  0].a[  6] =         7.067590000000;     BAS[ATNO][  0].d[  6] =        -0.618337922878;
  BAS[ATNO][  0].a[  7] =         4.414900000000;     BAS[ATNO][  0].d[  7] =        -0.188650999966;
  BAS[ATNO][  0].a[  8] =         2.163560000000;     BAS[ATNO][  0].d[  8] =         0.722742527609;
  BAS[ATNO][  0].a[  9] =         1.144097773600;     BAS[ATNO][  0].d[  9] =         0.734737753104;
  BAS[ATNO][  0].a[ 10] =        20.197961274000;     BAS[ATNO][  0].d[ 10] =         0.005490821029;
  BAS[ATNO][  0].a[ 11] =        10.880108426000;     BAS[ATNO][  0].d[ 11] =        -0.035137932072;
  BAS[ATNO][  0].a[ 12] =         2.774538702800;     BAS[ATNO][  0].d[ 12] =         0.130634846774;
  BAS[ATNO][  0].a[ 13] =         0.585500562800;     BAS[ATNO][  0].d[ 13] =        -0.164488554659;
  BAS[ATNO][  0].a[ 14] =         0.253170898400;     BAS[ATNO][  0].d[ 14] =         0.098419634876;
  BAS[ATNO][  0].a[ 15] =         0.115994616300;     BAS[ATNO][  0].d[ 15] =        -0.047969028729;
  BAS[ATNO][  0].a[ 16] =         0.052233584100;     BAS[ATNO][  0].d[ 16] =         0.013075348896;

FINAL SINGLE POINT ENERGY      -190.384687637479

DIPOLE MOMENT
-------------
                                X             Y             Z
Electronic contribution:      0.00000      -0.00000      -0.00000
Nuclear contribution   :      0.00000       0.00000       0.00000
                        -----------------------------------------
Total Dipole Moment    :      0.00000      -0.00000      -0.00000
                        -----------------------------------------
Magnitude (a.u.)       :      0.00000
Magnitude (Debye)      :      0.00000

Rotational constants in cm-1:     0.000000     0.000000     0.000000
Rotational constants in MHz :     0.000000     0.000000     0.000000

                             ****ORCA TERMINATED NORMALLY****
TOTAL RUN TIME: 0 days 0 hours 0 minutes 1 seconds 448 msec
