                         Program Version 4.2.0 -  RELEASE  -
|  1> #
|  2> # 51_Sb CCSD(T)/Def2-QZVP
|  3> #
|  4> ! CCSD(T) Def2-QZVP tightscf
|  5>
|  6> *xyz 0 4
|  7>  Sb 0.0 0.0 0.0
|  8> *
|  9>
| 10> %maxcore 5000
| 11>
| 12> %pal
| 13> nprocs 24
| 14> end
| 15>
| 16>
| 17>                          ****END OF INPUT****

CARTESIAN COORDINATES (ANGSTROEM)
---------------------------------
  Sb     0.000000    0.000000    0.000000

 Total Charge           Charge          ....    0
 Multiplicity           Mult            ....    4
 Number of Electrons    NEL             ....   23
 Basis Dimension        Dim             ....   82

ORBITAL ENERGIES
----------------
                 SPIN UP ORBITALS
  NO   OCC          E(Eh)            E(eV)
   0   1.0000      -6.525204      -177.5598
   1   1.0000      -4.592259      -124.9617
   2   1.0000      -4.592259      -124.9617
   3   1.0000      -4.592259      -124.9617
   4   1.0000      -1.619456       -44.0676
   5   1.0000      -1.619456       -44.0676
   6   1.0000      -1.619456       -44.0676
   7   1.0000      -1.619456       -44.0676
   8   1.0000      -1.619456       -44.0676
   9   1.0000      -0.731570       -19.9070
  10   1.0000      -0.334284        -9.0963
  11   1.0000      -0.334284        -9.0963
  12   1.0000      -0.334283        -9.0963
  13   0.0000       0.130161         3.5419
  14   0.0000       0.147384         4.0105
  15   0.0000       0.147384         4.0105
  16   0.0000       0.147384         4.0105
  17   0.0000       0.208486         5.6732

                 SPIN DOWN ORBITALS
  NO   OCC          E(Eh)            E(eV)
   0   1.0000      -6.512471      -177.2134
   1   1.0000      -4.579464      -124.6135
   2   1.0000      -4.579464      -124.6135
   3   1.0000      -4.579464      -124.6135
   4   1.0000      -1.607615       -43.7454
   5   1.0000      -1.607615       -43.7454
   6   1.0000      -1.607615       -43.7454
   7   1.0000      -1.607615       -43.7454
   8   1.0000      -1.607614       -43.7454
   9   1.0000      -0.507566       -13.8116
  10   0.0000       0.024533         0.6676
  11   0.0000       0.024533         0.6676
  12   0.0000       0.024533         0.6676
  13   0.0000       0.157327         4.2811
  14   0.0000       0.189801         5.1648

E(0)                                       ...   -239.277977503
E(0)                                       ...   -239.277977503
E(CORR)                                    ...     -0.481894792
E(TOT)                                     ...   -239.759872295
E(CCSD(T))                                 ...   -239.770197020

MULLIKEN ATOMIC CHARGES AND SPIN DENSITIES
------------------------------------------
   0 Sb:   -0.000000    3.000000
Sum of atomic charges       :   -0.0000000

LOEWDIN ATOMIC CHARGES AND SPIN DENSITIES
-----------------------------------------
   0 Sb:   -0.000000    3.000000

FINAL SINGLE POINT ENERGY      -239.770197020366

DIPOLE MOMENT
-------------
                                X             Y             Z
Electronic contribution:      0.00000      -0.00000       0.00000
Nuclear contribution   :      0.00000       0.00000       0.00000
                        -----------------------------------------
Total Dipole Moment    :      0.00000      -0.00000       0.00000
                        -----------------------------------------
Magnitude (a.u.)       :      0.00000
Magnitude (Debye)      :      0.00000

Rotational constants in cm-1:     0.000000     0.000000     0.000000
Rotational constants in MHz :     0.000000     0.000000     0.000000

                             ****ORCA TERMINATED NORMALLY****
TOTAL RUN TIME: 0 days 0 hours 0 minutes 22 seconds 145 msec
