                         Program Version 4.2.0 -  RELEASE  -
|  1> # input to generate an atomic fitting density for Sb
|  2> # this file is use internally by ORCA
|  3> #
|  4> # atomic ground state (S=4): 1s2 2s2 2p6 3s2 3p6 4s2 3d10 4p6 5s2 4d10 5p3
|  5> #
|  6> ! RHF AllowRHF def2-SVP def2/J  NoMulliken NoLoewdin NoMayer NoPrintMOs
|  7>
|  8> %output print[p_atomdensfit] 2 end
|  9>
| 10> %scf
| 11>   guess hcore
| 12>   maxiter 1000
| 13>   maxdisk 500000
| 14>   SCFMode Conventional
| 15>   lshift 1.000000
| 16>   hftyp rohf
| 17>   rohf_case sahf
| 18>   rohf_numop   2
| 19>   rohf_norb[1] 3
| 20>   rohf_nel[1]  3
| 21> end
| 22>
| 23> %basis
| 24>   NewECP 51
| 25>     N_core 28
| 26>     lmax f
| 27>     s 4
| 28>       1      16.3308650000    281.0715810000  2
| 29>       2       8.5565420000     61.7166040000  2
| 30>       3      14.4449780000     15.3668010000  2
| 31>       4      14.4492950000     20.2961380000  2
| 32>     p 6
| 33>       1      14.4703370000     67.4573800000  2
| 34>       2      13.8161940000    134.9335030000  2
| 35>       3       8.4249240000     14.7163440000  2
| 36>       4       8.0927280000     29.5185120000  2
| 37>       5      14.4449780000     15.3668010000  2
| 38>       6      14.4492950000     20.2961380000  2
| 39>     d 6
| 40>       1      14.8863310000     35.4478150000  2
| 41>       2      15.1463190000     53.1434660000  2
| 42>       3       5.9082670000      9.1792230000  2
| 43>       4       5.5943220000     13.2402530000  2
| 44>       5      14.4449780000     15.3668010000  2
| 45>       6      14.4492950000     20.2961380000  2
| 46>     f 2
| 47>       1      14.4449780000    -15.3668010000  2
| 48>       2      14.4492950000    -20.2961380000  2
| 49>   end
| 50>   NewGTO 51
| 51>     s 9
| 52>      1   12339.3165550000      0.0001062594
| 53>      2    1854.7043271000      0.0007636787
| 54>      3     418.4444177200      0.0030770599
| 55>      4      96.9651111090      0.0079471651
| 56>      5      28.5379602670     -0.1669386813
| 57>      6      17.8629071440      0.7715813479
| 58>      7       8.4541754812     -1.5092770049
| 59>      8       5.2813981306     -0.8362947252
| 60>      9       2.3194618632      1.8771593451
| 61>     s 1
| 62>      1       1.2167512076      1.0000000000
| 63>     s 3
| 64>      1      25.3362666010      0.0501016644
| 65>      2      12.4770433090     -0.3294267888
| 66>      3       3.0723142741      1.1909064315
| 67>     s 1
| 68>      1       0.6017477470      1.0000000000
| 69>     s 1
| 70>      1       0.2832393635      1.0000000000
| 71>     s 1
| 72>      1       0.1322176573      1.0000000000
| 73>     s 1
| 74>      1       0.0609867190      1.0000000000
| 75>     p 7
| 76>      1     162.8930000000      0.0004035625
| 77>      2      30.3996000000     -0.0051634476
| 78>      3      19.0004000000      0.0588996771
| 79>      4       9.3225600000     -0.2747281280
| 80>      5       3.0166800000      0.3716832104
| 81>      6       1.8621900000      0.4356677749
| 82>      7       1.1033100000      0.3507463881
| 83>     p 3
| 84>      1      12.6653261130     -0.0222287165
| 85>      2       3.3473442879      0.2887067805
| 86>      3       1.1722158971      0.7797103956
| 87>     p 1
| 88>      1       0.5888674548      1.0000000000
| 89>     p 1
| 90>      1       0.2501424961      1.0000000000
| 91>     p 1
| 92>      1       0.1112016109      1.0000000000
| 93>     p 1
| 94>      1       0.0482066854      1.0000000000
| 95>   end
| 96>   NewAuxGTO 51
| 97>     S 1
| 98>      1 1310.72 1.0
| 99>     S 1
|100>      1  655.36 1.0
|101>     S 1
|102>      1  327.68 1.0
|103>     S 1
|104>      1  163.84 1.0
|105>     S 1
|106>      1   81.82 1.0
|107>     S 1
|108>      1   40.96 1.0
|109>     S 1
|110>      1   20.48 1.0
|111>     S 1
|112>      1   10.24 1.0
|113>     S 1
|114>      1    5.12 1.0
|115>     S 1
|116>      1    2.56 1.0
|117>     S 1
|118>      1    1.28 1.0
|119>     S 1
|120>      1    0.64 1.0
|121>     S 1
|122>      1    0.32 1.0
|123>     S 1
|124>      1    0.16 1.0
|125>     S 1
|126>      1    0.08 1.0
|127>     S 1
|128>      1    0.04 1.0
|129>     S 1
|130>      1    0.02 1.0
|131>     S 1
|132>      1    0.01 1.0
|133>   end
|134> end
|135>
|136> * xyz 0 4
|137> 51  0.0 0.0 0.0
|138> *
|139>
|140>
|141>                          ****END OF INPUT****

CARTESIAN COORDINATES (ANGSTROEM)
---------------------------------
  Sb     0.000000    0.000000    0.000000

 Total Charge           Charge          ....    0
 Multiplicity           Mult            ....    4
 Number of Electrons    NEL             ....   23
 Basis Dimension        Dim             ....   25

ORBITAL ENERGIES
----------------

  NO   OCC          E(Eh)            E(eV)
   0   2.0000     -10.674836      -290.4770
   1   2.0000      -8.429423      -229.3763
   2   2.0000      -8.425715      -229.2754
   3   2.0000      -8.422590      -229.1903
   4   2.0000      -2.697925       -73.4143
   5   2.0000      -1.876686       -51.0672
   6   2.0000      -1.869361       -50.8679
   7   2.0000      -1.863884       -50.7189
   8   2.0000      -0.502458       -13.6726
   9   2.0000      -0.282007        -7.6738
  10   1.0000      -0.330982        -9.0065
  11   1.0000      -0.330799        -9.0015
  12   1.0000       0.031637         0.8609
  13   0.0000       0.166940         4.5427
  14   0.0000       0.168258         4.5785
  15   0.0000       0.186067         5.0631
  16   0.0000       0.978138        26.6165
  17   0.0000       0.978829        26.6353

CleanUpVectors: The p-vectors have cracked symmetry
CleanUpVectors: The p-vectors have cracked symmetry
CleanUpVectors: The p-vectors have cracked symmetry
CleanUpVectors: The p-vectors have cracked symmetry
CleanUpVectors: The p-vectors have cracked symmetry
CleanUpVectors: The p-vectors have cracked symmetry
CleanUpVectors: The p-vectors have cracked symmetry
CleanUpVectors: The p-vectors have cracked symmetry
CleanUpVectors: The p-vectors have cracked symmetry
CleanUpVectors: The p-vectors have cracked symmetry
CleanUpVectors: The p-vectors have cracked symmetry
CleanUpVectors: The p-vectors have cracked symmetry
CleanUpVectors: The p-vectors have cracked symmetry
CleanUpVectors: The p-vectors have cracked symmetry
CleanUpVectors: The p-vectors have cracked symmetry
CleanUpVectors: The p-vectors have cracked symmetry
CleanUpVectors: The p-vectors have cracked symmetry
--------------------------
ATOM BASIS FOR ELEMENT Sb
--------------------------
 NewGTO Sb
 S 17
    1      12339.316554999999        -0.000042640639
    2       1854.704327100000        -0.000306455217
    3        418.444417720000        -0.001234787693
    4         96.965111109000        -0.003189103228
    5         28.537960267000         0.066990515585
    6         17.862907144000        -0.309626456308
    7          8.454175481200         0.605654986200
    8          5.281398130600         0.335595168154
    9          2.319461863200        -0.753281812126
   10          1.216751207600        -0.758574024847
   11         25.336266601000        -0.004875779302
   12         12.477043309000         0.032059061066
   13          3.072314274100        -0.115896288066
   14          0.601747747000         0.213414381958
   15          0.283239363500        -0.140591238000
   16          0.132217657300         0.066079166734
   17          0.060986719000        -0.017689599436
 P 31
    1        162.893000000000        -0.000337693042
    2         30.399600000000         0.004320669854
    3         19.000400000000        -0.049286073753
    4          9.322560000000         0.229887012039
    5          3.016680000000        -0.311017089098
    6          1.862190000000        -0.364558095098
    7          1.103310000000        -0.293497574241
    8        162.893000000000         0.000220705420
    9         30.399600000000        -0.002823852243
   10         19.000400000000         0.032211808496
   11          9.322560000000        -0.150246831278
   12          3.016680000000         0.203270866396
   13          1.862190000000         0.238263563128
   14          1.103310000000         0.191820669321
   15        162.893000000000         0.000077337881
   16         30.399600000000        -0.000989512402
   17         19.000400000000         0.011287412105
   18          9.322560000000        -0.052648329332
   19          3.016680000000         0.071228600474
   20          1.862190000000         0.083490469867
   21          1.103310000000         0.067216311221
   22         12.665326113000         0.001824711032
   23          3.347344287900        -0.023699364172
   24          1.172215897100        -0.064004872285
   25         12.665326113000        -0.001192573030
   26          3.347344287900         0.015489149815
   27          1.172215897100         0.041831546558
   28         12.665326113000        -0.000417892192
   29          3.347344287900         0.005427587748
   30          1.172215897100         0.014658286108
   31          0.588867454800         0.181213298450
 S 17
    1      12339.316554999999        -0.000028033617
    2       1854.704327100000        -0.000201475595
    3        418.444417720000        -0.000811797520
    4         96.965111109000        -0.002096640666
    5         28.537960267000         0.044042173973
    6         17.862907144000        -0.203560491155
    7          8.454175481200         0.398181175896
    8          5.281398130600         0.220633333705
    9          2.319461863200        -0.495236800765
   10          1.216751207600        -1.427110208965
   11         25.336266601000        -0.011644938490
   12         12.477043309000         0.076567410252
   13          3.072314274100        -0.276797833122
   14          0.601747747000         1.841511418375
   15          0.283239363500         0.164751885824
   16          0.132217657300         0.145291331025
   17          0.060986719000        -0.039361233114
 P 31
    1        162.893000000000        -0.000188407381
    2         30.399600000000         0.002410609611
    3         19.000400000000        -0.027497931366
    4          9.322560000000         0.128259704974
    5          3.016680000000        -0.173524201023
    6          1.862190000000        -0.203396065348
    7          1.103310000000        -0.163749626171
    8        162.893000000000         0.000123137065
    9         30.399600000000        -0.001575497686
   10         19.000400000000         0.017971772384
   11          9.322560000000        -0.083826459277
   12          3.016680000000         0.113409892636
   13          1.862190000000         0.132933192014
   14          1.103310000000         0.107021541743
   15        162.893000000000         0.000043148735
   16         30.399600000000        -0.000552073680
   17         19.000400000000         0.006297529093
   18          9.322560000000        -0.029373817719
   19          3.016680000000         0.039740214993
   20          1.862190000000         0.046581418142
   21          1.103310000000         0.037501658620
   22         12.665326113000         0.008104843189
   23          3.347344287900        -0.105265780123
   24          1.172215897100        -0.284291290009
   25         12.665326113000        -0.005297067443
   26          3.347344287900         0.068798362140
   27          1.172215897100         0.185803735083
   28         12.665326113000        -0.001856157291
   29          3.347344287900         0.024107788475
   30          1.172215897100         0.065107903791
   31          0.588867454800         1.124783012885
 S 17
    1      12339.316554999999         0.000008686966
    2       1854.704327100000         0.000062432600
    3        418.444417720000         0.000251557166
    4         96.965111109000         0.000649700167
    5         28.537960267000        -0.013647645136
    6         17.862907144000         0.063078660667
    7          8.454175481200        -0.123387083298
    8          5.281398130600        -0.068369137398
    9          2.319461863200         0.153462363586
   10          1.216751207600         0.421236414094
   11         25.336266601000         0.006709720002
   12         12.477043309000        -0.044117526642
   13          3.072314274100         0.159488687641
   14          0.601747747000        -0.239970895386
   15          0.283239363500        -2.990159646893
   16          0.132217657300         5.716087778412
   17          0.060986719000        -3.328319629166
 S 17
    1      12339.316554999999        -0.000027050853
    2       1854.704327100000        -0.000194412544
    3        418.444417720000        -0.000783338653
    4         96.965111109000        -0.002023139558
    5         28.537960267000         0.042498204793
    6         17.862907144000        -0.196424351036
    7          8.454175481200         0.384222294938
    8          5.281398130600         0.212898677657
    9          2.319461863200        -0.477875478919
   10          1.216751207600        -3.563239881678
   11         25.336266601000        -0.006349942871
   12         12.477043309000         0.041751932079
   13          3.072314274100        -0.150936857993
   14          0.601747747000        10.172824903711
   15          0.283239363500       -12.138939838576
   16          0.132217657300         7.843573946450
   17          0.060986719000        -2.329260453829
 S 17
    1      12339.316554999999        -0.000009381829
    2       1854.704327100000        -0.000067426534
    3        418.444417720000        -0.000271679026
    4         96.965111109000        -0.000701669172
    5         28.537960267000         0.014739309520
    6         17.862907144000        -0.068124273046
    7          8.454175481200         0.133256718898
    8          5.281398130600         0.073837930844
    9          2.319461863200        -0.165737697166
   10          1.216751207600        -9.791522427755
   11         25.336266601000         0.211653564713
   12         12.477043309000        -1.391657442851
   13          3.072314274100         5.030962433787
   14          0.601747747000        10.906128424594
   15          0.283239363500        -7.367668361919
   16          0.132217657300         3.516276550497
   17          0.060986719000        -0.931432067621
 P 31
    1        162.893000000000        -0.000117249415
    2         30.399600000000         0.001500167167
    3         19.000400000000        -0.017112473790
    4          9.322560000000         0.079818398355
    5          3.016680000000        -0.107987335572
    6          1.862190000000        -0.126577151966
    7          1.103310000000        -0.101904435962
    8        162.893000000000        -0.000193790421
    9         30.399600000000         0.002479483804
   10         19.000400000000        -0.028283582356
   11          9.322560000000         0.131924248423
   12          3.016680000000        -0.178482008888
   13          1.862190000000        -0.209207350497
   14          1.103310000000        -0.168428161958
   15        162.893000000000         0.000041070228
   16         30.399600000000        -0.000525479870
   17         19.000400000000         0.005994172314
   18          9.322560000000        -0.027958858515
   19          3.016680000000         0.037825898526
   20          1.862190000000         0.044337555701
   21          1.103310000000         0.035695175120
   22         12.665326113000         0.005064969420
   23          3.347344287900        -0.065783870812
   24          1.172215897100        -0.177662498421
   25         12.665326113000         0.008371406816
   26          3.347344287900        -0.108727911034
   27          1.172215897100        -0.293641466883
   28         12.665326113000        -0.001774161926
   29          3.347344287900         0.023042831910
   30          1.172215897100         0.062231775620
   31          0.588867454800         0.705369582313
 P 31
    1        162.893000000000        -0.000024397505
    2         30.399600000000         0.000312157941
    3         19.000400000000        -0.003560799555
    4          9.322560000000         0.016608780288
    5          3.016680000000        -0.022470232020
    6          1.862190000000        -0.026338440133
    7          1.103310000000        -0.021204489469
    8        162.893000000000        -0.000004870327
    9         30.399600000000         0.000062314214
   10         19.000400000000        -0.000710821019
   11          9.322560000000         0.003315511011
   12          3.016680000000        -0.004485597399
   13          1.862190000000        -0.005257784542
   14          1.103310000000        -0.004232924820
   15        162.893000000000        -0.000092631967
   16         30.399600000000         0.001185195122
   17         19.000400000000        -0.013519573622
   18          9.322560000000         0.063059889893
   19          3.016680000000        -0.085314534385
   20          1.862190000000        -0.100001270765
   21          1.103310000000        -0.080508787997
   22         12.665326113000         0.001374774601
   23          3.347344287900        -0.017855585545
   24          1.172215897100        -0.048222579479
   25         12.665326113000         0.000274437993
   26          3.347344287900        -0.003564403252
   27          1.172215897100        -0.009626383783
   28         12.665326113000         0.005219717130
   29          3.347344287900        -0.067793735534
   30          1.172215897100        -0.183090540032
   31          0.588867454800         0.233695348221
 P 31
    1        162.893000000000        -0.000032008308
    2         30.399600000000         0.000409535629
    3         19.000400000000        -0.004671591186
    4          9.322560000000         0.021789890276
    5          3.016680000000        -0.029479822219
    6          1.862190000000        -0.034554718080
    7          1.103310000000        -0.027819231205
    8        162.893000000000        -0.000052903492
    9         30.399600000000         0.000676882538
   10         19.000400000000        -0.007721229301
   11          9.322560000000         0.036014439742
   12          3.016680000000        -0.048724397758
   13          1.862190000000        -0.057112211046
   14          1.103310000000        -0.045979764616
   15        162.893000000000         0.000011211898
   16         30.399600000000        -0.000143452499
   17         19.000400000000         0.001636369054
   18          9.322560000000        -0.007632581859
   19          3.016680000000         0.010326217958
   20          1.862190000000         0.012103856927
   21          1.103310000000         0.009744544682
   22         12.665326113000         0.001693032147
   23          3.347344287900        -0.021989117570
   24          1.172215897100        -0.059386009327
   25         12.665326113000         0.002798252010
   26          3.347344287900        -0.036343723612
   27          1.172215897100        -0.098153493540
   28         12.665326113000        -0.000593036784
   29          3.347344287900         0.007702367370
   30          1.172215897100         0.020801783383
   31          0.588867454800         0.242884832509
 P 31
    1        162.893000000000        -0.000097263764
    2         30.399600000000         0.001244457417
    3         19.000400000000        -0.014195581269
    4          9.322560000000         0.066213019493
    5          3.016680000000        -0.089580443890
    6          1.862190000000        -0.105001548556
    7          1.103310000000        -0.084534399886
    8        162.893000000000        -0.000160758035
    9         30.399600000000         0.002056845450
   10         19.000400000000        -0.023462527794
   11          9.322560000000         0.109437210122
   12          3.016680000000        -0.148059006159
   13          1.862190000000        -0.173547085158
   14          1.103310000000        -0.139718879365
   15        162.893000000000         0.000034069636
   16         30.399600000000        -0.000435909634
   17         19.000400000000         0.004972440645
   18          9.322560000000        -0.023193154485
   19          3.016680000000         0.031378316378
   20          1.862190000000         0.036780034432
   21          1.103310000000         0.029610783663
   22         12.665326113000         0.007209425300
   23          3.347344287900        -0.093636084104
   24          1.172215897100        -0.252882970232
   25         12.665326113000         0.011915774231
   26          3.347344287900        -0.154762188609
   27          1.172215897100        -0.417966239295
   28         12.665326113000        -0.002525323811
   29          3.347344287900         0.032798929586
   30          1.172215897100         0.088580068394
   31          0.588867454800         1.688410943903
 P 31
    1        162.893000000000        -0.001328998070
    2         30.399600000000         0.017004087092
    3         19.000400000000        -0.193966379961
    4          9.322560000000         0.904725171431
    5          3.016680000000        -1.224014296225
    6          1.862190000000        -1.434726051544
    7          1.103310000000        -1.155065876992
    8        162.893000000000        -0.002196574661
    9         30.399600000000         0.028104440229
   10         19.000400000000        -0.320588603351
   11          9.322560000000         1.495334290328
   12          3.016680000000        -2.023056953419
   13          1.862190000000        -2.371322396951
   14          1.103310000000        -1.909098661112
   15        162.893000000000         0.000465522602
   16         30.399600000000        -0.005956206439
   17         19.000400000000         0.067942712534
   18          9.322560000000        -0.316907921141
   19          3.016680000000         0.428748793901
   20          1.862190000000         0.502557091102
   21          1.103310000000         0.404597481552
   22         12.665326113000        -0.084807852730
   23          3.347344287900         1.101485194735
   24          1.172215897100         2.974781040635
   25         12.665326113000        -0.140170843346
   26          3.347344287900         1.820540241375
   27          1.172215897100         4.916732988916
   28         12.665326113000         0.029706568529
   29          3.347344287900        -0.385829193498
   30          1.172215897100        -1.042008894198
   31          0.588867454800        -0.774549651834
 end
  // -----------------------------------------------
  // The basis set
  // -----------------------------------------------
  BAS[ATNO] = new BFNGauss[NSH];
  // Basis function   1 L = s
  InitBFNGauss(BAS[ATNO][  0]);
  BAS[ATNO][  0].l  = 0;
  BAS[ATNO][  0].ng = 17;
  BAS[ATNO][  0].a[  0] =     12339.316554999999;     BAS[ATNO][  0].d[  0] =         0.000042640639;
  BAS[ATNO][  0].a[  1] =      1854.704327100000;     BAS[ATNO][  0].d[  1] =         0.000306455217;
  BAS[ATNO][  0].a[  2] =       418.444417720000;     BAS[ATNO][  0].d[  2] =         0.001234787693;
  BAS[ATNO][  0].a[  3] =        96.965111109000;     BAS[ATNO][  0].d[  3] =         0.003189103228;
  BAS[ATNO][  0].a[  4] =        28.537960267000;     BAS[ATNO][  0].d[  4] =        -0.066990515585;
  BAS[ATNO][  0].a[  5] =        17.862907144000;     BAS[ATNO][  0].d[  5] =         0.309626456308;
  BAS[ATNO][  0].a[  6] =         8.454175481200;     BAS[ATNO][  0].d[  6] =        -0.605654986200;
  BAS[ATNO][  0].a[  7] =         5.281398130600;     BAS[ATNO][  0].d[  7] =        -0.335595168154;
  BAS[ATNO][  0].a[  8] =         2.319461863200;     BAS[ATNO][  0].d[  8] =         0.753281812126;
  BAS[ATNO][  0].a[  9] =         1.216751207600;     BAS[ATNO][  0].d[  9] =         0.758574024847;
  BAS[ATNO][  0].a[ 10] =        25.336266601000;     BAS[ATNO][  0].d[ 10] =         0.004875779302;
  BAS[ATNO][  0].a[ 11] =        12.477043309000;     BAS[ATNO][  0].d[ 11] =        -0.032059061066;
  BAS[ATNO][  0].a[ 12] =         3.072314274100;     BAS[ATNO][  0].d[ 12] =         0.115896288066;
  BAS[ATNO][  0].a[ 13] =         0.601747747000;     BAS[ATNO][  0].d[ 13] =        -0.213414381958;
  BAS[ATNO][  0].a[ 14] =         0.283239363500;     BAS[ATNO][  0].d[ 14] =         0.140591238000;
  BAS[ATNO][  0].a[ 15] =         0.132217657300;     BAS[ATNO][  0].d[ 15] =        -0.066079166734;
  BAS[ATNO][  0].a[ 16] =         0.060986719000;     BAS[ATNO][  0].d[ 16] =         0.017689599436;

FINAL SINGLE POINT ENERGY      -211.738292697828

DIPOLE MOMENT
-------------
                                X             Y             Z
Electronic contribution:     -0.00000       0.00000       0.00000
Nuclear contribution   :      0.00000       0.00000       0.00000
                        -----------------------------------------
Total Dipole Moment    :     -0.00000       0.00000       0.00000
                        -----------------------------------------
Magnitude (a.u.)       :      0.00000
Magnitude (Debye)      :      0.00000

Rotational constants in cm-1:     0.000000     0.000000     0.000000
Rotational constants in MHz :     0.000000     0.000000     0.000000

                             ****ORCA TERMINATED NORMALLY****
TOTAL RUN TIME: 0 days 0 hours 0 minutes 1 seconds 277 msec
