                         Program Version 4.2.0 -  RELEASE  -
|  1> #
|  2> # 52_Te CCSD(T)/Def2-QZVP
|  3> #
|  4> ! CCSD(T) Def2-QZVP tightscf
|  5>
|  6> *xyz 0 3
|  7>  Te 0.0 0.0 0.0
|  8> *
|  9>
| 10> %maxcore 5000
| 11>
| 12> %pal
| 13> nprocs 24
| 14> end
| 15>
| 16>
| 17>                          ****END OF INPUT****

CARTESIAN COORDINATES (ANGSTROEM)
---------------------------------
  Te     0.000000    0.000000    0.000000

 Total Charge           Charge          ....    0
 Multiplicity           Mult            ....    3
 Number of Electrons    NEL             ....   24
 Basis Dimension        Dim             ....   82

ORBITAL ENERGIES
----------------
                 SPIN UP ORBITALS
  NO   OCC          E(Eh)            E(eV)
   0   1.0000      -7.136956      -194.2064
   1   1.0000      -5.108732      -139.0157
   2   1.0000      -5.108732      -139.0157
   3   1.0000      -5.089657      -138.4966
   4   1.0000      -1.966960       -53.5237
   5   1.0000      -1.966960       -53.5237
   6   1.0000      -1.951297       -53.0975
   7   1.0000      -1.951297       -53.0975
   8   1.0000      -1.946213       -52.9591
   9   1.0000      -0.831237       -22.6191
  10   1.0000      -0.398348       -10.8396
  11   1.0000      -0.398348       -10.8396
  12   1.0000      -0.342812        -9.3284
  13   0.0000       0.134729         3.6662
  14   0.0000       0.172698         4.6994
  15   0.0000       0.172698         4.6994
  16   0.0000       0.188960         5.1419
  17   0.0000       0.218018         5.9326

                 SPIN DOWN ORBITALS
  NO   OCC          E(Eh)            E(eV)
   0   1.0000      -7.124931      -193.8792
   1   1.0000      -5.091062      -138.5348
   2   1.0000      -5.091062      -138.5348
   3   1.0000      -5.088927      -138.4768
   4   1.0000      -1.951813       -53.1115
   5   1.0000      -1.951813       -53.1115
   6   1.0000      -1.943712       -52.8911
   7   1.0000      -1.943712       -52.8911
   8   1.0000      -1.941176       -52.8221
   9   1.0000      -0.665747       -18.1159
  10   1.0000      -0.312260        -8.4970
  11   0.0000      -0.009881        -0.2689
  12   0.0000      -0.009881        -0.2689
  13   0.0000       0.151244         4.1156
  14   0.0000       0.193545         5.2666
  15   0.0000       0.210587         5.7304

E(0)                                       ...   -267.006942186
E(0)                                       ...   -267.006942186
E(CORR)                                    ...     -0.529346824
E(TOT)                                     ...   -267.536289011
E(CCSD(T))                                 ...   -267.546966151

MULLIKEN ATOMIC CHARGES AND SPIN DENSITIES
------------------------------------------
   0 Te:    0.000000    2.000000
Sum of atomic charges       :    0.0000000

LOEWDIN ATOMIC CHARGES AND SPIN DENSITIES
-----------------------------------------
   0 Te:    0.000000    2.000000

FINAL SINGLE POINT ENERGY      -267.546966150647

DIPOLE MOMENT
-------------
                                X             Y             Z
Electronic contribution:     -0.00000       0.00000      -0.00000
Nuclear contribution   :      0.00000       0.00000       0.00000
                        -----------------------------------------
Total Dipole Moment    :     -0.00000       0.00000      -0.00000
                        -----------------------------------------
Magnitude (a.u.)       :      0.00000
Magnitude (Debye)      :      0.00000

Rotational constants in cm-1:     0.000000     0.000000     0.000000
Rotational constants in MHz :     0.000000     0.000000     0.000000

                             ****ORCA TERMINATED NORMALLY****
TOTAL RUN TIME: 0 days 0 hours 0 minutes 24 seconds 120 msec
