                         Program Version 4.2.0 -  RELEASE  -
|  1> # input to generate an atomic fitting density for Te
|  2> # this file is use internally by ORCA
|  3> #
|  4> # atomic ground state (S=3): 1s2 2s2 2p6 3s2 3p6 4s2 3d10 4p6 5s2 4d10 5p4
|  5> #
|  6> ! RHF AllowRHF def2-SVP def2/J  NoMulliken NoLoewdin NoMayer NoPrintMOs
|  7>
|  8> %output print[p_atomdensfit] 2 end
|  9>
| 10> %scf
| 11>   guess hcore
| 12>   maxiter 1000
| 13>   maxdisk 500000
| 14>   SCFMode Conventional
| 15>   lshift 1.000000
| 16>   hftyp rohf
| 17>   rohf_case sahf
| 18>   rohf_numop   2
| 19>   rohf_norb[1] 3
| 20>   rohf_nel[1]  4
| 21> end
| 22>
| 23> %basis
| 24>   NewECP 52
| 25>     N_core 28
| 26>     lmax f
| 27>     s 4
| 28>       1      16.8144730000    281.0458430000  2
| 29>       2       8.7935260000     61.6206560000  2
| 30>       3      15.2061680000     15.7454500000  2
| 31>       4      15.2017020000     20.7424480000  2
| 32>     p 6
| 33>       1      14.8778010000     67.4494640000  2
| 34>       2      14.2697310000    134.9043040000  2
| 35>       3       8.7244350000     14.6895470000  2
| 36>       4       8.2915150000     29.4150630000  2
| 37>       5      15.2061680000     15.7454500000  2
| 38>       6      15.2017020000     20.7424480000  2
| 39>     d 6
| 40>       1      15.2050080000     35.4320570000  2
| 41>       2      15.2258480000     53.1356870000  2
| 42>       3       6.0717690000      9.0698020000  2
| 43>       4       5.8047600000     13.1223040000  2
| 44>       5      15.2061680000     15.7454500000  2
| 45>       6      15.2017020000     20.7424480000  2
| 46>     f 2
| 47>       1      15.2061680000    -15.7454500000  2
| 48>       2      15.2017020000    -20.7424480000  2
| 49>   end
| 50>   NewGTO 52
| 51>     s 9
| 52>      1   15746.3000000000      0.0001435055
| 53>      2    2369.2500000000      0.0010576887
| 54>      3     535.8600000000      0.0044167804
| 55>      4     141.8850000000      0.0096627038
| 56>      5      27.8197000000     -0.1552702952
| 57>      6      17.3879000000      0.9740303047
| 58>      7      10.8656000000     -1.0565964608
| 59>      8       6.5688500000     -1.3797123853
| 60>      9       2.4013900000      1.8274415778
| 61>     s 1
| 62>      1       1.2865441585      1.0000000000
| 63>     s 3
| 64>      1      29.3832530230      0.0651233222
| 65>      2      15.9464080030     -0.2951275416
| 66>      3       3.6679902632      1.1575836936
| 67>     s 1
| 68>      1       0.6353359469      1.0000000000
| 69>     s 1
| 70>      1       0.2980778621      1.0000000000
| 71>     s 1
| 72>      1       0.1406124869      1.0000000000
| 73>     s 1
| 74>      1       0.0656606559      1.0000000000
| 75>     p 7
| 76>      1     750.2220000000      0.0000598114
| 77>      2     163.9610000000      0.0004715901
| 78>      3      16.9227000000      0.0959133768
| 79>      4      10.5755000000     -0.3085027477
| 80>      5       5.7046200000     -0.0263768400
| 81>      6       2.9802200000      0.5699891117
| 82>      7       1.5197000000      0.5918133818
| 83>     p 3
| 84>      1      13.9254572580     -0.0237704969
| 85>      2       4.2323766654      0.2499275232
| 86>      3       1.4547630727      0.8154746457
| 87>     p 1
| 88>      1       0.7552878369      1.0000000000
| 89>     p 1
| 90>      1       0.3182945117      1.0000000000
| 91>     p 1
| 92>      1       0.1372183092      1.0000000000
| 93>     p 1
| 94>      1       0.0570991715      1.0000000000
| 95>   end
| 96>   NewAuxGTO 52
| 97>     S 1
| 98>      1 1310.72 1.0
| 99>     S 1
|100>      1  655.36 1.0
|101>     S 1
|102>      1  327.68 1.0
|103>     S 1
|104>      1  163.84 1.0
|105>     S 1
|106>      1   81.82 1.0
|107>     S 1
|108>      1   40.96 1.0
|109>     S 1
|110>      1   20.48 1.0
|111>     S 1
|112>      1   10.24 1.0
|113>     S 1
|114>      1    5.12 1.0
|115>     S 1
|116>      1    2.56 1.0
|117>     S 1
|118>      1    1.28 1.0
|119>     S 1
|120>      1    0.64 1.0
|121>     S 1
|122>      1    0.32 1.0
|123>     S 1
|124>      1    0.16 1.0
|125>     S 1
|126>      1    0.08 1.0
|127>     S 1
|128>      1    0.04 1.0
|129>     S 1
|130>      1    0.02 1.0
|131>     S 1
|132>      1    0.01 1.0
|133>   end
|134> end
|135>
|136> * xyz 0 3
|137> 52  0.0 0.0 0.0
|138> *
|139>
|140>
|141>                          ****END OF INPUT****

CARTESIAN COORDINATES (ANGSTROEM)
---------------------------------
  Te     0.000000    0.000000    0.000000

 Total Charge           Charge          ....    0
 Multiplicity           Mult            ....    3
 Number of Electrons    NEL             ....   24
 Basis Dimension        Dim             ....   25

ORBITAL ENERGIES
----------------

  NO   OCC          E(Eh)            E(eV)
   0   2.0000     -11.548634      -314.2543
   1   2.0000      -9.202925      -250.4243
   2   2.0000      -9.202925      -250.4243
   3   2.0000      -9.191258      -250.1069
   4   2.0000      -3.002597       -81.7048
   5   2.0000      -2.139582       -58.2210
   6   2.0000      -2.139582       -58.2210
   7   2.0000      -2.119268       -57.6682
   8   2.0000      -0.583657       -15.8821
   9   2.0000      -0.320709        -8.7269
  10   1.3333      -0.354968        -9.6592
  11   1.3333      -0.354968        -9.6592
  12   1.3333       0.075995         2.0679
  13   0.0000       0.129667         3.5284
  14   0.0000       0.169258         4.6057
  15   0.0000       0.169258         4.6057
  16   0.0000       1.183276        32.1986
  17   0.0000       1.264749        34.4156

CleanUpVectors: The p-vectors have cracked symmetry
CleanUpVectors: The p-vectors have cracked symmetry
CleanUpVectors: The p-vectors have cracked symmetry
CleanUpVectors: The p-vectors have cracked symmetry
CleanUpVectors: The p-vectors have cracked symmetry
CleanUpVectors: The p-vectors have cracked symmetry
CleanUpVectors: The p-vectors have cracked symmetry
CleanUpVectors: The p-vectors have cracked symmetry
CleanUpVectors: The p-vectors have cracked symmetry
CleanUpVectors: The p-vectors have cracked symmetry
CleanUpVectors: The p-vectors have cracked symmetry
CleanUpVectors: The p-vectors have cracked symmetry
CleanUpVectors: The p-vectors have cracked symmetry
CleanUpVectors: The p-vectors have cracked symmetry
CleanUpVectors: The p-vectors have cracked symmetry
CleanUpVectors: The p-vectors have cracked symmetry
CleanUpVectors: The p-vectors have cracked symmetry
--------------------------
ATOM BASIS FOR ELEMENT Te
--------------------------
 NewGTO Te
 S 17
    1      15746.299999999999         0.000061296411
    2       2369.250000000000         0.000451777256
    3        535.860000000000         0.001886567314
    4        141.885000000000         0.004127291716
    5         27.819700000000        -0.066321582077
    6         17.387900000000         0.416043717285
    7         10.865600000000        -0.451310721135
    8          6.568850000000        -0.589325267186
    9          2.401390000000         0.780566665617
   10          1.286544158500         0.718014634900
   11         29.383253023000         0.006492702437
   12         15.946408003000        -0.029423795407
   13          3.667990263200         0.115409444956
   14          0.635335946900        -0.203900547129
   15          0.298077862100         0.136860269394
   16          0.140612486900        -0.066068638440
   17          0.065660655900         0.017773848465
 P 31
    1        750.222000000000         0.000004556607
    2        163.961000000000         0.000035927107
    3         16.922700000000         0.007306960226
    4         10.575500000000        -0.023502637300
    5          5.704620000000        -0.002009464448
    6          2.980220000000         0.043423429637
    7          1.519700000000         0.045086066058
    8        750.222000000000        -0.000057490758
    9        163.961000000000        -0.000453292723
   10         16.922700000000        -0.092192002729
   11         10.575500000000         0.296533049997
   12          5.704620000000         0.025353436469
   13          2.980220000000        -0.547873920143
   14          1.519700000000        -0.568851423342
   15        750.222000000000        -0.000005367335
   16        163.961000000000        -0.000042319394
   17         16.922700000000        -0.008607042430
   18         10.575500000000         0.027684316075
   19          5.704620000000         0.002366996019
   20          2.980220000000        -0.051149491682
   21          1.519700000000        -0.053107950711
   22         13.925457258000        -0.000205793716
   23          4.232376665400         0.002163754253
   24          1.454763072700         0.007059993674
   25         13.925457258000         0.002596501726
   26          4.232376665400        -0.027300112742
   27          1.454763072700        -0.089076022845
   28         13.925457258000         0.000242409318
   29          4.232376665400        -0.002548737654
   30          1.454763072700        -0.008316134647
   31          0.755287836900        -0.011314782305
 S 17
    1      15746.299999999999         0.000044018236
    2       2369.250000000000         0.000324430709
    3        535.860000000000         0.001354783497
    4        141.885000000000         0.002963894615
    5         27.819700000000        -0.047626916988
    6         17.387900000000         0.298769706120
    7         10.865600000000        -0.324095680141
    8          6.568850000000        -0.423206815945
    9          2.401390000000         0.560541269112
   10          1.286544158500         1.421546389208
   11         29.383253023000         0.016297840465
   12         15.946408003000        -0.073858971371
   13          3.667990263200         0.289698278993
   14          0.635335946900        -1.973624606747
   15          0.298077862100        -0.041545059956
   16          0.140612486900        -0.177044877673
   17          0.065660655900         0.049345864062
 P 31
    1        750.222000000000        -0.000036351928
    2        163.961000000000        -0.000286621102
    3         16.922700000000        -0.058293839858
    4         10.575500000000         0.187500538196
    5          5.704620000000         0.016031207932
    6          2.980220000000        -0.346425651008
    7          1.519700000000        -0.359689916627
    8        750.222000000000        -0.000004109968
    9        163.961000000000        -0.000032405533
   10         16.922700000000        -0.006590732217
   11         10.575500000000         0.021198909540
   12          5.704620000000         0.001812496807
   13          2.980220000000        -0.039167066445
   14          1.519700000000        -0.040666731297
   15        750.222000000000        -0.000000233899
   16        163.961000000000        -0.000001844202
   17         16.922700000000        -0.000375079163
   18         10.575500000000         0.001206431848
   19          5.704620000000         0.000103149356
   20          2.980220000000        -0.002229001273
   21          1.519700000000        -0.002314347335
   22         13.925457258000         0.010893790747
   23          4.232376665400        -0.114539386829
   24          1.454763072700        -0.373724208913
   25         13.925457258000         0.001231657716
   26          4.232376665400        -0.012949883363
   27          1.454763072700        -0.042253455770
   28         13.925457258000         0.000070093751
   29          4.232376665400        -0.000736979027
   30          1.454763072700        -0.002404647967
   31          0.755287836900         1.182579804985
 S 17
    1      15746.299999999999         0.000013920851
    2       2369.250000000000         0.000102601830
    3        535.860000000000         0.000428452862
    4        141.885000000000         0.000937337319
    5         27.819700000000        -0.015062103249
    6         17.387900000000         0.094486488853
    7         10.865600000000        -0.102495876395
    8          6.568850000000        -0.133839961945
    9          2.401390000000         0.177272244444
   10          1.286544158500         0.414201410512
   11         29.383253023000         0.008768624776
   12         15.946408003000        -0.039737878628
   13          3.667990263200         0.155864546115
   14          0.635335946900        -0.377935725022
   15          0.298077862100        -2.719850371356
   16          0.140612486900         5.607708605055
   17          0.065660655900        -3.381576248518
 S 17
    1      15746.299999999999        -0.000038051959
    2       2369.250000000000        -0.000280457032
    3        535.860000000000        -0.001171154727
    4        141.885000000000        -0.002562165244
    5         27.819700000000         0.041171514940
    6         17.387900000000        -0.258274148253
    7         10.865600000000         0.280167413317
    8          6.568850000000         0.365844922306
    9          2.401390000000        -0.484564920322
   10          1.286544158500        -3.389228034168
   11         29.383253023000        -0.009013665794
   12         15.946408003000         0.040848361797
   13          3.667990263200        -0.160220212829
   14          0.635335946900         9.990222397871
   15          0.298077862100       -12.357537584405
   16          0.140612486900         8.264842228997
   17          0.065660655900        -2.490950590000
 S 17
    1      15746.299999999999         0.000056742540
    2       2369.250000000000         0.000418213540
    3        535.860000000000         0.001746409285
    4        141.885000000000         0.003820664398
    5         27.819700000000        -0.061394377939
    6         17.387900000000         0.385134739220
    7         10.865600000000        -0.417781664932
    8          6.568850000000        -0.545542748668
    9          2.401390000000         0.722576322431
   10          1.286544158500        -9.794054087794
   11         29.383253023000         0.263118852831
   12         15.946408003000        -1.192408764806
   13          3.667990263200         4.677004845980
   14          0.635335946900        10.978653768253
   15          0.298077862100        -7.548393850440
   16          0.140612486900         3.686113206734
   17          0.065660655900        -0.980663597700
 P 31
    1        750.222000000000        -0.000000149872
    2        163.961000000000        -0.000001181685
    3         16.922700000000        -0.000240334472
    4         10.575500000000         0.000773029244
    5          5.704620000000         0.000066093637
    6          2.980220000000        -0.001428247415
    7          1.519700000000        -0.001482933472
    8        750.222000000000         0.000003413817
    9        163.961000000000         0.000026916650
   10         16.922700000000         0.005474387198
   11         10.575500000000        -0.017608216382
   12          5.704620000000        -0.001505494229
   13          2.980220000000         0.032532908342
   14          1.519700000000         0.033778558415
   15        750.222000000000        -0.000036693415
   16        163.961000000000        -0.000289313597
   17         16.922700000000        -0.058841447348
   18         10.575500000000         0.189261902678
   19          5.704620000000         0.016181803768
   20          2.980220000000        -0.349679944799
   21          1.519700000000        -0.363068813827
   22         13.925457258000         0.000045233058
   23          4.232376665400        -0.000475588970
   24          1.454763072700        -0.001551772857
   25         13.925457258000        -0.001030327737
   26          4.232376665400         0.010833061695
   27          1.454763072700         0.035346595822
   28         13.925457258000         0.011074477033
   29          4.232376665400        -0.116439156795
   30          1.454763072700        -0.379922862905
   31          0.755287836900         0.004940535647
 P 31
    1        750.222000000000        -0.000013925738
    2        163.961000000000        -0.000109799136
    3         16.922700000000        -0.022331270167
    4         10.575500000000         0.071827918441
    5          5.704620000000         0.006141253283
    6          2.980220000000        -0.132709130576
    7          1.519700000000        -0.137790420466
    8        750.222000000000         0.000008494972
    9        163.961000000000         0.000066979616
   10         16.922700000000         0.013622510569
   11         10.575500000000        -0.043816431881
   12          5.704620000000        -0.003746284342
   13          2.980220000000         0.080955159304
   14          1.519700000000         0.084054845292
   15        750.222000000000         0.000000847219
   16        163.961000000000         0.000006680000
   17         16.922700000000         0.001358597980
   18         10.575500000000        -0.004369893166
   19          5.704620000000        -0.000373623813
   20          2.980220000000         0.008073806612
   21          1.519700000000         0.008382943984
   22         13.925457258000         0.005312569913
   23          4.232376665400        -0.055857369992
   24          1.454763072700        -0.182253912738
   25         13.925457258000        -0.003240771315
   26          4.232376665400         0.034074085682
   27          1.454763072700         0.111178443227
   28         13.925457258000        -0.000323208071
   29          4.232376665400         0.003398271100
   30          1.454763072700         0.011088030185
   31          0.755287836900         0.690188793230
 P 31
    1        750.222000000000        -0.000011032143
    2        163.961000000000        -0.000086984241
    3         16.922700000000        -0.017691109903
    4         10.575500000000         0.056902970127
    5          5.704620000000         0.004865177214
    6          2.980220000000        -0.105133823403
    7          1.519700000000        -0.109159284436
    8        750.222000000000         0.000000105237
    9        163.961000000000         0.000000829753
   10         16.922700000000         0.000168757577
   11         10.575500000000        -0.000542804122
   12          5.704620000000        -0.000046409497
   13          2.980220000000         0.001002883902
   14          1.519700000000         0.001041283248
   15        750.222000000000         0.000000054851
   16        163.961000000000         0.000000432479
   17         16.922700000000         0.000087958881
   18         10.575500000000        -0.000282917331
   19          5.704620000000        -0.000024189299
   20          2.980220000000         0.000522717543
   21          1.519700000000         0.000542731835
   22         13.925457258000         0.004119889705
   23          4.232376665400        -0.043317303554
   24          1.454763072700        -0.141337625870
   25         13.925457258000        -0.000039300112
   26          4.232376665400         0.000413208851
   27          1.454763072700         0.001348236230
   28         13.925457258000        -0.000020483785
   29          4.232376665400         0.000215370408
   30          1.454763072700         0.000702720153
   31          0.755287836900         0.445651607145
 P 31
    1        750.222000000000        -0.000000153939
    2        163.961000000000        -0.000001213751
    3         16.922700000000        -0.000246856160
    4         10.575500000000         0.000794006071
    5          5.704620000000         0.000067887146
    6          2.980220000000        -0.001467004163
    7          1.519700000000        -0.001523174175
    8        750.222000000000         0.000003506454
    9        163.961000000000         0.000027647057
   10         16.922700000000         0.005622939504
   11         10.575500000000        -0.018086030801
   12          5.704620000000        -0.001546347137
   13          2.980220000000         0.033415717387
   14          1.519700000000         0.034695169270
   15        750.222000000000        -0.000037689123
   16        163.961000000000        -0.000297164376
   17         16.922700000000        -0.060438161709
   18         10.575500000000         0.194397690658
   19          5.704620000000         0.016620911227
   20          2.980220000000        -0.359168817266
   21          1.519700000000        -0.372921005016
   22         13.925457258000         0.000077087594
   23          4.232376665400        -0.000810513614
   24          1.454763072700        -0.002644579891
   25         13.925457258000        -0.001755916791
   26          4.232376665400         0.018462042943
   27          1.454763072700         0.060238775365
   28         13.925457258000         0.018873470521
   29          4.232376665400        -0.198439256927
   30          1.454763072700        -0.647476439024
   31          0.755287836900         0.014819240179
 P 31
    1        750.222000000000        -0.000001391818
    2        163.961000000000        -0.000010973958
    3         16.922700000000        -0.002231915668
    4         10.575500000000         0.007178895573
    5          5.704620000000         0.000613792199
    6          2.980220000000        -0.013263714315
    7          1.519700000000        -0.013771567671
    8        750.222000000000         0.000031703120
    9        163.961000000000         0.000249967023
   10         16.922700000000         0.050839025873
   11         10.575500000000        -0.163522333333
   12          5.704620000000        -0.013981082681
   13          2.980220000000         0.302123563614
   14          1.519700000000         0.313691549950
   15        750.222000000000        -0.000340760967
   16        163.961000000000        -0.002686770391
   17         16.922700000000        -0.546443237326
   18         10.575500000000         1.757619696036
   19          5.704620000000         0.150275658317
   20          2.980220000000        -3.247374931728
   21          1.519700000000        -3.371713425518
   22         13.925457258000        -0.000611543307
   23          4.232376665400         0.006429882582
   24          1.454763072700         0.020979707048
   25         13.925457258000         0.013929856957
   26          4.232376665400        -0.146461164125
   27          1.454763072700        -0.477880004550
   28         13.925457258000        -0.149725058661
   29          4.232376665400         1.574237729634
   30          1.454763072700         5.136492925565
   31          0.755287836900        -0.002806092789
 end
  // -----------------------------------------------
  // The basis set
  // -----------------------------------------------
  BAS[ATNO] = new BFNGauss[NSH];
  // Basis function   1 L = s
  InitBFNGauss(BAS[ATNO][  0]);
  BAS[ATNO][  0].l  = 0;
  BAS[ATNO][  0].ng = 17;
  BAS[ATNO][  0].a[  0] =     15746.299999999999;     BAS[ATNO][  0].d[  0] =         0.000061296411;
  BAS[ATNO][  0].a[  1] =      2369.250000000000;     BAS[ATNO][  0].d[  1] =         0.000451777256;
  BAS[ATNO][  0].a[  2] =       535.860000000000;     BAS[ATNO][  0].d[  2] =         0.001886567314;
  BAS[ATNO][  0].a[  3] =       141.885000000000;     BAS[ATNO][  0].d[  3] =         0.004127291716;
  BAS[ATNO][  0].a[  4] =        27.819700000000;     BAS[ATNO][  0].d[  4] =        -0.066321582077;
  BAS[ATNO][  0].a[  5] =        17.387900000000;     BAS[ATNO][  0].d[  5] =         0.416043717285;
  BAS[ATNO][  0].a[  6] =        10.865600000000;     BAS[ATNO][  0].d[  6] =        -0.451310721135;
  BAS[ATNO][  0].a[  7] =         6.568850000000;     BAS[ATNO][  0].d[  7] =        -0.589325267186;
  BAS[ATNO][  0].a[  8] =         2.401390000000;     BAS[ATNO][  0].d[  8] =         0.780566665617;
  BAS[ATNO][  0].a[  9] =         1.286544158500;     BAS[ATNO][  0].d[  9] =         0.718014634900;
  BAS[ATNO][  0].a[ 10] =        29.383253023000;     BAS[ATNO][  0].d[ 10] =         0.006492702437;
  BAS[ATNO][  0].a[ 11] =        15.946408003000;     BAS[ATNO][  0].d[ 11] =        -0.029423795407;
  BAS[ATNO][  0].a[ 12] =         3.667990263200;     BAS[ATNO][  0].d[ 12] =         0.115409444956;
  BAS[ATNO][  0].a[ 13] =         0.635335946900;     BAS[ATNO][  0].d[ 13] =        -0.203900547129;
  BAS[ATNO][  0].a[ 14] =         0.298077862100;     BAS[ATNO][  0].d[ 14] =         0.136860269394;
  BAS[ATNO][  0].a[ 15] =         0.140612486900;     BAS[ATNO][  0].d[ 15] =        -0.066068638440;
  BAS[ATNO][  0].a[ 16] =         0.065660655900;     BAS[ATNO][  0].d[ 16] =         0.017773848465;

FINAL SINGLE POINT ENERGY      -234.261171734672

DIPOLE MOMENT
-------------
                                X             Y             Z
Electronic contribution:      0.00000      -0.00000       0.00000
Nuclear contribution   :      0.00000       0.00000       0.00000
                        -----------------------------------------
Total Dipole Moment    :      0.00000      -0.00000       0.00000
                        -----------------------------------------
Magnitude (a.u.)       :      0.00000
Magnitude (Debye)      :      0.00000

Rotational constants in cm-1:     0.000000     0.000000     0.000000
Rotational constants in MHz :     0.000000     0.000000     0.000000

                             ****ORCA TERMINATED NORMALLY****
TOTAL RUN TIME: 0 days 0 hours 0 minutes 1 seconds 97 msec
