                         Program Version 4.2.0 -  RELEASE  -
|  1> # input to generate an atomic fitting density for I
|  2> # this file is use internally by ORCA
|  3> #
|  4> # atomic ground state (S=2): 1s2 2s2 2p6 3s2 3p6 4s2 3d10 4p6 5s2 4d10 5p5
|  5> #
|  6> ! RHF AllowRHF def2-SVP def2/J  NoMulliken NoLoewdin NoMayer NoPrintMOs
|  7>
|  8> %output print[p_atomdensfit] 2 end
|  9>
| 10> %scf
| 11>   guess hcore
| 12>   maxiter 1000
| 13>   maxdisk 500000
| 14>   SCFMode Conventional
| 15>   lshift 1.000000
| 16>   hftyp rohf
| 17>   rohf_case sahf
| 18>   rohf_numop   2
| 19>   rohf_norb[1] 3
| 20>   rohf_nel[1]  5
| 21> end
| 22>
| 23> %basis
| 24>   NewECP 53
| 25>     N_core 28
| 26>     lmax f
| 27>     s 7
| 28>       1      40.0158350000     49.9942930000  2
| 29>       2      17.4297470000    281.0253170000  2
| 30>       3       9.0054840000     61.5733260000  2
| 31>       4      19.4586090000     21.8420400000  2
| 32>       5      19.3492600000     28.4681910000  2
| 33>       6       4.8237670000      0.2437130000  2
| 34>       7       4.8843150000      0.3208040000  2
| 35>     p 8
| 36>       1      15.3554660000     67.4428410000  2
| 37>       2      14.9718330000    134.8811370000  2
| 38>       3       8.9601640000     14.6750510000  2
| 39>       4       8.2590960000     29.3756660000  2
| 40>       5      19.4586090000     21.8420400000  2
| 41>       6      19.3492600000     28.4681910000  2
| 42>       7       4.8237670000      0.2437130000  2
| 43>       8       4.8843150000      0.3208040000  2
| 44>     d 10
| 45>       1      15.0689080000     35.4395290000  2
| 46>       2      14.5553220000     53.1760570000  2
| 47>       3       6.7186470000      9.0671950000  2
| 48>       4       6.4563930000     13.2069370000  2
| 49>       5       1.1917790000      0.0893350000  2
| 50>       6       1.2911570000      0.0523800000  2
| 51>       7      19.4586090000     21.8420400000  2
| 52>       8      19.3492600000     28.4681910000  2
| 53>       9       4.8237670000      0.2437130000  2
| 54>      10       4.8843150000      0.3208040000  2
| 55>     f 4
| 56>       1      19.4586090000    -21.8420400000  2
| 57>       2      19.3492600000    -28.4681910000  2
| 58>       3       4.8237670000     -0.2437130000  2
| 59>       4       4.8843150000     -0.3208040000  2
| 60>   end
| 61>   NewGTO 53
| 62>     s 9
| 63>      1   16788.4000000000      0.0001035868
| 64>      2    2526.6400000000      0.0007655317
| 65>      3     571.9840000000      0.0031505547
| 66>      4     150.4340000000      0.0067179832
| 67>      5      29.5405000000     -0.1343849292
| 68>      6      18.4571000000      0.8592550642
| 69>      7      11.5286000000     -0.8902275185
| 70>      8       7.0828900000     -1.3678132143
| 71>      9       2.5040500000      1.8083451524
| 72>     s 1
| 73>      1       1.3540144781      1.0000000000
| 74>     s 3
| 75>      1      25.0586179330      0.0886865792
| 76>      2      15.6219793720     -0.3094370527
| 77>      3       3.3536325162      1.1474877803
| 78>     s 1
| 79>      1       0.6743047270      1.0000000000
| 80>     s 1
| 81>      1       0.3272713695      1.0000000000
| 82>     s 1
| 83>      1       0.1574936412      1.0000000000
| 84>     s 1
| 85>      1       0.0743777278      1.0000000000
| 86>     p 7
| 87>      1     656.2740000000      0.0001022631
| 88>      2     149.2320000000      0.0006888713
| 89>      3      19.0153000000      0.0673396998
| 90>      4      10.7378000000     -0.2801087878
| 91>      5       6.4420800000     -0.0049164959
| 92>      6       3.0920300000      0.5776169143
| 93>      7       1.5787400000      0.5699910077
| 94>     p 3
| 95>      1      15.6605118930     -0.0244846280
| 96>      2       4.9250669812      0.2600416205
| 97>      3       1.6692319982      0.8088703667
| 98>     p 1
| 99>      1       0.7781789818      1.0000000000
|100>     p 1
|101>      1       0.3560884372      1.0000000000
|102>     p 1
|103>      1       0.1549324265      1.0000000000
|104>     p 1
|105>      1       0.0646662125      1.0000000000
|106>   end
|107>   NewAuxGTO 53
|108>     S 1
|109>      1 1310.72 1.0
|110>     S 1
|111>      1  655.36 1.0
|112>     S 1
|113>      1  327.68 1.0
|114>     S 1
|115>      1  163.84 1.0
|116>     S 1
|117>      1   81.82 1.0
|118>     S 1
|119>      1   40.96 1.0
|120>     S 1
|121>      1   20.48 1.0
|122>     S 1
|123>      1   10.24 1.0
|124>     S 1
|125>      1    5.12 1.0
|126>     S 1
|127>      1    2.56 1.0
|128>     S 1
|129>      1    1.28 1.0
|130>     S 1
|131>      1    0.64 1.0
|132>     S 1
|133>      1    0.32 1.0
|134>     S 1
|135>      1    0.16 1.0
|136>     S 1
|137>      1    0.08 1.0
|138>     S 1
|139>      1    0.04 1.0
|140>     S 1
|141>      1    0.02 1.0
|142>     S 1
|143>      1    0.01 1.0
|144>   end
|145> end
|146>
|147> * xyz 0 2
|148> 53  0.0 0.0 0.0
|149> *
|150>
|151>
|152>                          ****END OF INPUT****

CARTESIAN COORDINATES (ANGSTROEM)
---------------------------------
  I      0.000000    0.000000    0.000000

 Total Charge           Charge          ....    0
 Multiplicity           Mult            ....    2
 Number of Electrons    NEL             ....   25
 Basis Dimension        Dim             ....   25

ORBITAL ENERGIES
----------------

  NO   OCC          E(Eh)            E(eV)
   0   2.0000     -12.559339      -341.7570
   1   2.0000     -10.086696      -274.4729
   2   2.0000     -10.083655      -274.3902
   3   2.0000     -10.075422      -274.1662
   4   2.0000      -3.360622       -91.4472
   5   2.0000      -2.435748       -66.2801
   6   2.0000      -2.430689       -66.1424
   7   2.0000      -2.415737       -65.7356
   8   2.0000      -0.397231       -10.8092
   9   2.0000      -0.377739       -10.2788
  10   1.6667      -0.685344       -18.6492
  11   1.6667      -0.403343       -10.9755
  12   1.6667       0.086549         2.3551
  13   0.0000       0.149858         4.0778
  14   0.0000       0.193081         5.2540
  15   0.0000       0.197647         5.3782
  16   0.0000       1.267144        34.4807
  17   0.0000       1.341377        36.5007

CleanUpVectors: The p-vectors have cracked symmetry
CleanUpVectors: The p-vectors have cracked symmetry
CleanUpVectors: The p-vectors have cracked symmetry
CleanUpVectors: The p-vectors have cracked symmetry
CleanUpVectors: The p-vectors have cracked symmetry
CleanUpVectors: The p-vectors have cracked symmetry
CleanUpVectors: The p-vectors have cracked symmetry
CleanUpVectors: The p-vectors have cracked symmetry
CleanUpVectors: The p-vectors have cracked symmetry
CleanUpVectors: The p-vectors have cracked symmetry
CleanUpVectors: The p-vectors have cracked symmetry
CleanUpVectors: The p-vectors have cracked symmetry
CleanUpVectors: The p-vectors have cracked symmetry
CleanUpVectors: The p-vectors have cracked symmetry
CleanUpVectors: The p-vectors have cracked symmetry
CleanUpVectors: The p-vectors have cracked symmetry
CleanUpVectors: The p-vectors have cracked symmetry
--------------------------
ATOM BASIS FOR ELEMENT I
--------------------------
 NewGTO I
 S 17
    1      16788.400000000001         0.000045544118
    2       2526.640000000000         0.000336582130
    3        571.984000000000         0.001385207710
    4        150.434000000000         0.002953702764
    5         29.540500000000        -0.059085163653
    6         18.457100000000         0.377789580945
    7         11.528600000000        -0.391407272615
    8          7.082890000000        -0.601387879537
    9          2.504050000000         0.795077021704
   10          1.354014478100         0.657558673487
   11         25.058617933000         0.010589096406
   12         15.621979372000        -0.036946500948
   13          3.353632516200         0.137008990981
   14          0.674304727000        -0.191251063579
   15          0.327271369500         0.132855245611
   16          0.157493641200        -0.063362593084
   17          0.074377727800         0.016536161107
 P 31
    1        656.274000000000        -0.000100404224
    2        149.232000000000        -0.000676349416
    3         19.015300000000        -0.066115639664
    4         10.737800000000         0.275017140497
    5          6.442080000000         0.004827126826
    6          3.092030000000        -0.567117345090
    7          1.578740000000        -0.559630057585
    8        656.274000000000         0.000010687360
    9        149.232000000000         0.000071992885
   10         19.015300000000         0.007037568918
   11         10.737800000000        -0.029273740521
   12          6.442080000000        -0.000513815459
   13          3.092030000000         0.060365859288
   14          1.578740000000         0.059568887465
   15        656.274000000000         0.000001088967
   16        149.232000000000         0.000007335568
   17         19.015300000000         0.000717078764
   18         10.737800000000        -0.002982788220
   19          6.442080000000        -0.000052354181
   20          3.092030000000         0.006150856391
   21          1.578740000000         0.006069650569
   22         15.660511893000         0.002362226507
   23          4.925066981200        -0.025088280239
   24          1.669231998200        -0.078038147886
   25         15.660511893000        -0.000251443258
   26          4.925066981200         0.002670480118
   27          1.669231998200         0.008306640407
   28         15.660511893000        -0.000025620299
   29          4.925066981200         0.000272103137
   30          1.669231998200         0.000846388221
   31          0.778178981800         0.164867118790
 S 17
    1      16788.400000000001         0.000031505092
    2       2526.640000000000         0.000232830312
    3        571.984000000000         0.000958215882
    4        150.434000000000         0.002043220579
    5         29.540500000000        -0.040872095783
    6         18.457100000000         0.261335519503
    7         11.528600000000        -0.270755542465
    8          7.082890000000        -0.416009392130
    9          2.504050000000         0.549993639296
   10          1.354014478100         1.357444709530
   11         25.058617933000         0.028210411463
   12         15.621979372000        -0.098429172231
   13          3.353632516200         0.365005649370
   14          0.674304727000        -2.062621735420
   15          0.327271369500         0.067723292590
   16          0.157493641200        -0.214078464318
   17          0.074377727800         0.055732123100
 P 31
    1        656.274000000000        -0.000066171439
    2        149.232000000000        -0.000445748319
    3         19.015300000000        -0.043573535437
    4         10.737800000000         0.181250142602
    5          6.442080000000         0.003181319622
    6          3.092030000000        -0.373758884569
    7          1.578740000000        -0.368824385121
    8        656.274000000000         0.000007043508
    9        149.232000000000         0.000047446936
   10         19.015300000000         0.004638112256
   11         10.737800000000        -0.019292868926
   12          6.442080000000        -0.000338630258
   13          3.092030000000         0.039784140670
   14          1.578740000000         0.039258896112
   15        656.274000000000         0.000000717684
   16        149.232000000000         0.000004834509
   17         19.015300000000         0.000472591010
   18         10.737800000000        -0.001965807619
   19          6.442080000000        -0.000034504041
   20          3.092030000000         0.004053724055
   21          1.578740000000         0.004000205330
   22         15.660511893000         0.009776405212
   23          4.925066981200        -0.103831361210
   24          1.669231998200        -0.322971803727
   25         15.660511893000        -0.001040633136
   26          4.925066981200         0.011052155951
   27          1.669231998200         0.034378194613
   28         15.660511893000        -0.000106033196
   29          4.925066981200         0.001126136940
   30          1.669231998200         0.003502896182
   31          0.778178981800         1.236189474931
 S 17
    1      16788.400000000001         0.000009349239
    2       2526.640000000000         0.000069093154
    3        571.984000000000         0.000284353685
    4        150.434000000000         0.000606332363
    5         29.540500000000        -0.012128927573
    6         18.457100000000         0.077552166768
    7         11.528600000000        -0.080347589269
    8          7.082890000000        -0.123452142352
    9          2.504050000000         0.163212404181
   10          1.354014478100         0.363496147317
   11         25.058617933000         0.015504471635
   12         15.621979372000        -0.054096775967
   13          3.353632516200         0.200607486514
   14          0.674304727000        -0.366069646878
   15          0.327271369500        -2.836885112389
   16          0.157493641200         5.819505373457
   17          0.074377727800        -3.486331743120
 S 17
    1      16788.400000000001        -0.000026979037
    2       2526.640000000000        -0.000199381656
    3        571.984000000000        -0.000820557547
    4        150.434000000000        -0.001749689289
    5         29.540500000000         0.035000366060
    6         18.457100000000        -0.223791774604
    7         11.528600000000         0.231858506824
    8          7.082890000000         0.356245030502
    9          2.504050000000        -0.470980955031
   10          1.354014478100        -3.437630499089
   11         25.058617933000        -0.015803436877
   12         15.621979372000         0.055139897984
   13          3.353632516200        -0.204475703835
   14          0.674304727000        10.778743858891
   15          0.327271369500       -13.638361087487
   16          0.157493641200         9.061061372787
   17          0.074377727800        -2.693590708477
 S 17
    1      16788.400000000001        -0.000004497632
    2       2526.640000000000        -0.000033238600
    3        571.984000000000        -0.000136793848
    4        150.434000000000        -0.000291687927
    5         29.540500000000         0.005834855535
    6         18.457100000000        -0.037307971934
    7         11.528600000000         0.038652764073
    8          7.082890000000         0.059389044227
    9          2.504050000000        -0.078516488297
   10          1.354014478100        11.007443871668
   11         25.058617933000        -0.403322203306
   12         15.621979372000         1.407234724861
   13          3.353632516200        -5.218459252703
   14          0.674304727000       -12.757514052600
   15          0.327271369500         9.010862727857
   16          0.157493641200        -4.317305781830
   17          0.074377727800         1.116854630994
 P 31
    1        656.274000000000        -0.000006757851
    2        149.232000000000        -0.000045522674
    3         19.015300000000        -0.004450008623
    4         10.737800000000         0.018510425866
    5          6.442080000000         0.000324896743
    6          3.092030000000        -0.038170652036
    7          1.578740000000        -0.037666709336
    8        656.274000000000        -0.000064989516
    9        149.232000000000        -0.000437786577
   10         19.015300000000        -0.042795245902
   11         10.737800000000         0.178012739719
   12          6.442080000000         0.003124496421
   13          3.092030000000        -0.367082983116
   14          1.578740000000        -0.362236621324
   15        656.274000000000         0.000014738324
   16        149.232000000000         0.000099281247
   17         19.015300000000         0.009705106540
   18         10.737800000000        -0.040369731917
   19          6.442080000000        -0.000708573348
   20          3.092030000000         0.083247084693
   21          1.578740000000         0.082148026690
   22         15.660511893000         0.001004922168
   23          4.925066981200        -0.010672883780
   24          1.669231998200        -0.033198452618
   25         15.660511893000         0.009664226508
   26          4.925066981200        -0.102639955238
   27          1.669231998200        -0.319265885483
   28         15.660511893000        -0.002191653440
   29          4.925066981200         0.023276690666
   30          1.669231998200         0.072403122539
   31          0.778178981800         0.127771490561
 P 31
    1        656.274000000000        -0.000030757843
    2        149.232000000000        -0.000207192970
    3         19.015300000000        -0.020253873808
    4         10.737800000000         0.084248787229
    5          6.442080000000         0.001478742671
    6          3.092030000000        -0.173730802575
    7          1.578740000000        -0.171437145930
    8        656.274000000000         0.000003273967
    9        149.232000000000         0.000022054310
   10         19.015300000000         0.002155889794
   11         10.737800000000        -0.008967721547
   12          6.442080000000        -0.000157402296
   13          3.092030000000         0.018492485327
   14          1.578740000000         0.018248340873
   15        656.274000000000         0.000000333594
   16        149.232000000000         0.000002247179
   17         19.015300000000         0.000219670003
   18         10.737800000000        -0.000913747738
   19          6.442080000000        -0.000016038187
   20          3.092030000000         0.001884254161
   21          1.578740000000         0.001859377559
   22         15.660511893000         0.005766797801
   23          4.925066981200        -0.061246895209
   24          1.669231998200        -0.190511036240
   25         15.660511893000        -0.000613837167
   26          4.925066981200         0.006519323541
   27          1.669231998200         0.020278629293
   28         15.660511893000        -0.000062545689
   29          4.925066981200         0.000664273206
   30          1.669231998200         0.002066249666
   31          0.778178981800         0.898309041511
 P 31
    1        656.274000000000        -0.000000681798
    2        149.232000000000        -0.000004592772
    3         19.015300000000        -0.000448960283
    4         10.737800000000         0.001867512346
    5          6.442080000000         0.000032778753
    6          3.092030000000        -0.003851027764
    7          1.578740000000        -0.003800185108
    8        656.274000000000        -0.000004397571
    9        149.232000000000        -0.000029623202
   10         19.015300000000        -0.002895776811
   11         10.737800000000         0.012045383849
   12          6.442080000000         0.000211421715
   13          3.092030000000        -0.024838983114
   14          1.578740000000        -0.024511049910
   15        656.274000000000        -0.000019703971
   16        149.232000000000        -0.000132731164
   17         19.015300000000        -0.012974958836
   18         10.737800000000         0.053971134443
   19          6.442080000000         0.000947306449
   20          3.092030000000        -0.111294759379
   21          1.578740000000        -0.109825405870
   22         15.660511893000         0.000129153525
   23          4.925066981200        -0.001371688876
   24          1.669231998200        -0.004266695778
   25         15.660511893000         0.000833035339
   26          4.925066981200        -0.008847341260
   27          1.669231998200        -0.027520026046
   28         15.660511893000         0.003732538776
   29          4.925066981200        -0.039641828819
   30          1.669231998200        -0.123307571118
   31          0.778178981800         0.016387783360
 P 31
    1        656.274000000000        -0.000006848841
    2        149.232000000000        -0.000046135607
    3         19.015300000000        -0.004509925046
    4         10.737800000000         0.018759656508
    5          6.442080000000         0.000329271263
    6          3.092030000000        -0.038684594620
    7          1.578740000000        -0.038173866665
    8        656.274000000000        -0.000065864557
    9        149.232000000000        -0.000443681084
   10         19.015300000000        -0.043371455583
   11         10.737800000000         0.180409563519
   12          6.442080000000         0.003166565699
   13          3.092030000000        -0.372025512690
   14          1.578740000000        -0.367113897842
   15        656.274000000000         0.000014936765
   16        149.232000000000         0.000100618003
   17         19.015300000000         0.009835779380
   18         10.737800000000        -0.040913283658
   19          6.442080000000        -0.000718113819
   20          3.092030000000         0.084367951630
   21          1.578740000000         0.083254095537
   22         15.660511893000         0.001609640323
   23          4.925066981200        -0.017095357868
   24          1.669231998200        -0.053175827628
   25         15.660511893000         0.015479734819
   26          4.925066981200        -0.164404185646
   27          1.669231998200        -0.511386114555
   28         15.660511893000        -0.003510494506
   29          4.925066981200         0.037283583811
   30          1.669231998200         0.115972151116
   31          0.778178981800         0.391146263376
 P 31
    1        656.274000000000        -0.000056587909
    2        149.232000000000        -0.000381191129
    3         19.015300000000        -0.037262833010
    4         10.737800000000         0.154999903702
    5          6.442080000000         0.002720572950
    6          3.092030000000        -0.319627837442
    7          1.578740000000        -0.315407995580
    8        656.274000000000        -0.000544199729
    9        149.232000000000        -0.003665873369
   10         19.015300000000        -0.358352586622
   11         10.737800000000         1.490617109102
   12          6.442080000000         0.026163452289
   13          3.092030000000        -3.073825929293
   14          1.578740000000        -3.033244171971
   15        656.274000000000         0.000123413623
   16        149.232000000000         0.000831346821
   17         19.015300000000         0.081267205263
   18         10.737800000000        -0.338042171584
   19          6.442080000000        -0.005933348124
   20          3.092030000000         0.697082292874
   21          1.578740000000         0.687879161306
   22         15.660511893000        -0.013545730659
   23          4.925066981200         0.143863886822
   24          1.669231998200         0.447494653606
   25         15.660511893000        -0.130267809164
   26          4.925066981200         1.383523253614
   27          1.669231998200         4.303507105273
   28         15.660511893000         0.029542135823
   29          4.925066981200        -0.313755425342
   30          1.669231998200        -0.975949409417
   31          0.778178981800         0.028113695781
 end
  // -----------------------------------------------
  // The basis set
  // -----------------------------------------------
  BAS[ATNO] = new BFNGauss[NSH];
  // Basis function   1 L = s
  InitBFNGauss(BAS[ATNO][  0]);
  BAS[ATNO][  0].l  = 0;
  BAS[ATNO][  0].ng = 17;
  BAS[ATNO][  0].a[  0] =     16788.400000000001;     BAS[ATNO][  0].d[  0] =         0.000045544118;
  BAS[ATNO][  0].a[  1] =      2526.640000000000;     BAS[ATNO][  0].d[  1] =         0.000336582130;
  BAS[ATNO][  0].a[  2] =       571.984000000000;     BAS[ATNO][  0].d[  2] =         0.001385207710;
  BAS[ATNO][  0].a[  3] =       150.434000000000;     BAS[ATNO][  0].d[  3] =         0.002953702764;
  BAS[ATNO][  0].a[  4] =        29.540500000000;     BAS[ATNO][  0].d[  4] =        -0.059085163653;
  BAS[ATNO][  0].a[  5] =        18.457100000000;     BAS[ATNO][  0].d[  5] =         0.377789580945;
  BAS[ATNO][  0].a[  6] =        11.528600000000;     BAS[ATNO][  0].d[  6] =        -0.391407272615;
  BAS[ATNO][  0].a[  7] =         7.082890000000;     BAS[ATNO][  0].d[  7] =        -0.601387879537;
  BAS[ATNO][  0].a[  8] =         2.504050000000;     BAS[ATNO][  0].d[  8] =         0.795077021704;
  BAS[ATNO][  0].a[  9] =         1.354014478100;     BAS[ATNO][  0].d[  9] =         0.657558673487;
  BAS[ATNO][  0].a[ 10] =        25.058617933000;     BAS[ATNO][  0].d[ 10] =         0.010589096406;
  BAS[ATNO][  0].a[ 11] =        15.621979372000;     BAS[ATNO][  0].d[ 11] =        -0.036946500948;
  BAS[ATNO][  0].a[ 12] =         3.353632516200;     BAS[ATNO][  0].d[ 12] =         0.137008990981;
  BAS[ATNO][  0].a[ 13] =         0.674304727000;     BAS[ATNO][  0].d[ 13] =        -0.191251063579;
  BAS[ATNO][  0].a[ 14] =         0.327271369500;     BAS[ATNO][  0].d[ 14] =         0.132855245611;
  BAS[ATNO][  0].a[ 15] =         0.157493641200;     BAS[ATNO][  0].d[ 15] =        -0.063362593084;
  BAS[ATNO][  0].a[ 16] =         0.074377727800;     BAS[ATNO][  0].d[ 16] =         0.016536161107;

FINAL SINGLE POINT ENERGY      -257.955303447648

DIPOLE MOMENT
-------------
                                X             Y             Z
Electronic contribution:      0.00000      -0.00000       0.00000
Nuclear contribution   :      0.00000       0.00000       0.00000
                        -----------------------------------------
Total Dipole Moment    :      0.00000      -0.00000       0.00000
                        -----------------------------------------
Magnitude (a.u.)       :      0.00000
Magnitude (Debye)      :      0.00000

Rotational constants in cm-1:     0.000000     0.000000     0.000000
Rotational constants in MHz :     0.000000     0.000000     0.000000

                             ****ORCA TERMINATED NORMALLY****
TOTAL RUN TIME: 0 days 0 hours 0 minutes 1 seconds 138 msec
