                         Program Version 4.2.0 -  RELEASE  -
|  1> #
|  2> # 53_I CCSD(T)/Def2-QZVP
|  3> #
|  4> ! CCSD(T) Def2-QZVP tightscf
|  5>
|  6> *xyz 0 2
|  7>  I 0.0 0.0 0.0
|  8> *
|  9>
| 10> %maxcore 5000
| 11>
| 12> %pal
| 13> nprocs 24
| 14> end
| 15>
| 16>
| 17>                          ****END OF INPUT****

CARTESIAN COORDINATES (ANGSTROEM)
---------------------------------
  I      0.000000    0.000000    0.000000

 Total Charge           Charge          ....    0
 Multiplicity           Mult            ....    2
 Number of Electrons    NEL             ....   25
 Basis Dimension        Dim             ....   82

ORBITAL ENERGIES
----------------
                 SPIN UP ORBITALS
  NO   OCC          E(Eh)            E(eV)
   0   1.0000      -7.763077      -211.2441
   1   1.0000      -5.625467      -153.0767
   2   1.0000      -5.603454      -152.4777
   3   1.0000      -5.603454      -152.4777
   4   1.0000      -2.315882       -63.0184
   5   1.0000      -2.309868       -62.8547
   6   1.0000      -2.309868       -62.8547
   7   1.0000      -2.292178       -62.3733
   8   1.0000      -2.292178       -62.3733
   9   1.0000      -0.922998       -25.1161
  10   1.0000      -0.460342       -12.5265
  11   1.0000      -0.399954       -10.8833
  12   1.0000      -0.399954       -10.8833
  13   0.0000       0.151923         4.1340
  14   0.0000       0.188079         5.1179
  15   0.0000       0.204343         5.5604
  16   0.0000       0.204343         5.5604
  17   0.0000       0.257139         6.9971

                 SPIN DOWN ORBITALS
  NO   OCC          E(Eh)            E(eV)
   0   1.0000      -7.755386      -211.0348
   1   1.0000      -5.604415      -152.5039
   2   1.0000      -5.602423      -152.4497
   3   1.0000      -5.602423      -152.4497
   4   1.0000      -2.303994       -62.6949
   5   1.0000      -2.300894       -62.6105
   6   1.0000      -2.300894       -62.6105
   7   1.0000      -2.291971       -62.3677
   8   1.0000      -2.291971       -62.3677
   9   1.0000      -0.833137       -22.6708
  10   1.0000      -0.382948       -10.4206
  11   1.0000      -0.382948       -10.4206
  12   0.0000      -0.050714        -1.3800
  13   0.0000       0.160168         4.3584
  14   0.0000       0.206541         5.6203
  15   0.0000       0.206541         5.6203
  16   0.0000       0.220368         5.9965

E(0)                                       ...   -296.659733563
E(0)                                       ...   -296.659733563
E(CORR)                                    ...     -0.594142191
E(TOT)                                     ...   -297.253875754
E(CCSD(T))                                 ...   -297.266253534

MULLIKEN ATOMIC CHARGES AND SPIN DENSITIES
------------------------------------------
   0 I :   -0.000000    1.000000
Sum of atomic charges       :   -0.0000000

LOEWDIN ATOMIC CHARGES AND SPIN DENSITIES
-----------------------------------------
   0 I :   -0.000000    1.000000

FINAL SINGLE POINT ENERGY      -297.266253533957

DIPOLE MOMENT
-------------
                                X             Y             Z
Electronic contribution:     -0.00000       0.00000       0.00000
Nuclear contribution   :      0.00000       0.00000       0.00000
                        -----------------------------------------
Total Dipole Moment    :     -0.00000       0.00000       0.00000
                        -----------------------------------------
Magnitude (a.u.)       :      0.00000
Magnitude (Debye)      :      0.00000

Rotational constants in cm-1:     0.000000     0.000000     0.000000
Rotational constants in MHz :     0.000000     0.000000     0.000000

                             ****ORCA TERMINATED NORMALLY****
TOTAL RUN TIME: 0 days 0 hours 0 minutes 23 seconds 950 msec
