                         Program Version 4.2.0 -  RELEASE  -
|  1> # input to generate an atomic fitting density for Xe
|  2> # this file is use internally by ORCA
|  3> #
|  4> # atomic ground state (S=1): 1s2 2s2 2p6 3s2 3p6 4s2 3d10 4p6 5s2 4d10 5p6
|  5> #
|  6> ! RHF AllowRHF def2-SVP def2/J  NoMulliken NoLoewdin NoMayer NoPrintMOs
|  7>
|  8> %output print[p_atomdensfit] 2 end
|  9>
| 10> %scf
| 11>   guess hcore
| 12>   maxiter 1000
| 13>   maxdisk 500000
| 14>   SCFMode Conventional
| 15>   lshift 1.000000
| 16>   hftyp rohf
| 17>   rohf_case sahf
| 18>   rohf_numop   2
| 19>   rohf_norb[1] 3
| 20>   rohf_nel[1]  6
| 21> end
| 22>
| 23> %basis
| 24>   NewECP 54
| 25>     N_core 28
| 26>     lmax f
| 27>     s 7
| 28>       1      40.0051840000     49.9979620000  2
| 29>       2      17.8122140000    281.0133030000  2
| 30>       3       9.3041500000     61.5382550000  2
| 31>       4      20.8815570000     23.0892950000  2
| 32>       5      20.7834430000     30.0744750000  2
| 33>       6       5.2533890000      0.2882270000  2
| 34>       7       5.3611880000      0.3869240000  2
| 35>     p 8
| 36>       1      15.7017720000     67.4391420000  2
| 37>       2      15.2586080000    134.8747110000  2
| 38>       3       9.2921840000     14.6633000000  2
| 39>       4       8.5590030000     29.3547300000  2
| 40>       5      20.8815570000     23.0892950000  2
| 41>       6      20.7834430000     30.0744750000  2
| 42>       7       5.2533890000      0.2882270000  2
| 43>       8       5.3611880000      0.3869240000  2
| 44>     d 10
| 45>       1      15.1856000000     35.4369080000  2
| 46>       2      14.2845000000     53.1957720000  2
| 47>       3       7.1218890000      9.0462320000  2
| 48>       4       6.9919630000     13.2236810000  2
| 49>       5       0.6239460000      0.0848530000  2
| 50>       6       0.6472840000      0.0441550000  2
| 51>       7      20.8815570000     23.0892950000  2
| 52>       8      20.7834430000     30.0744750000  2
| 53>       9       5.2533890000      0.2882270000  2
| 54>      10       5.3611880000      0.3869240000  2
| 55>     f 4
| 56>       1      20.8815570000    -23.0892950000  2
| 57>       2      20.7834430000    -30.0744750000  2
| 58>       3       5.2533890000     -0.2882270000  2
| 59>       4       5.3611880000     -0.3869240000  2
| 60>   end
| 61>   NewGTO 54
| 62>     s 9
| 63>      1   18774.3000000000      0.0002098474
| 64>      2    2824.8100000000      0.0015460814
| 65>      3     640.0880000000      0.0064713228
| 66>      4     172.6160000000      0.0138653569
| 67>      5      29.5169000000     -0.1455075542
| 68>      6      18.4448000000      1.1542624130
| 69>      7      11.5238000000     -1.5825763401
| 70>      8       6.6189000000     -1.4770292813
| 71>      9       2.9955200000      1.8407040442
| 72>     s 1
| 73>      1       1.6532586536      1.0000000000
| 74>     s 3
| 75>      1      27.0521718350      0.2698370333
| 76>      2      20.9406224150     -0.5800955323
| 77>      3       6.0024591071      1.2407647072
| 78>     s 1
| 79>      1       0.8755388927      1.0000000000
| 80>     s 1
| 81>      1       0.4103361665      1.0000000000
| 82>     s 1
| 83>      1       0.1949358578      1.0000000000
| 84>     s 1
| 85>      1       0.0901710930      1.0000000000
| 86>     p 7
| 87>      1     613.3310000000      0.0001532348
| 88>      2     141.7100000000      0.0009471688
| 89>      3      20.3106000000      0.0610984931
| 90>      4      11.0331000000     -0.2809171554
| 91>      5       6.8951300000      0.0108219307
| 92>      6       3.2416600000      0.5849538901
| 93>      7       1.6653500000      0.5572328251
| 94>     p 3
| 95>      1      18.3889084130     -0.0270339421
| 96>      2       6.1139045431      0.2786237330
| 97>      3       1.8729815691      0.8043463625
| 98>     p 1
| 99>      1       0.8200466599      1.0000000000
|100>     p 1
|101>      1       0.3955264825      1.0000000000
|102>     p 1
|103>      1       0.1744550981      1.0000000000
|104>     p 1
|105>      1       0.0733899927      1.0000000000
|106>   end
|107>   NewAuxGTO 54
|108>     S 1
|109>      1 1310.72 1.0
|110>     S 1
|111>      1  655.36 1.0
|112>     S 1
|113>      1  327.68 1.0
|114>     S 1
|115>      1  163.84 1.0
|116>     S 1
|117>      1   81.82 1.0
|118>     S 1
|119>      1   40.96 1.0
|120>     S 1
|121>      1   20.48 1.0
|122>     S 1
|123>      1   10.24 1.0
|124>     S 1
|125>      1    5.12 1.0
|126>     S 1
|127>      1    2.56 1.0
|128>     S 1
|129>      1    1.28 1.0
|130>     S 1
|131>      1    0.64 1.0
|132>     S 1
|133>      1    0.32 1.0
|134>     S 1
|135>      1    0.16 1.0
|136>     S 1
|137>      1    0.08 1.0
|138>     S 1
|139>      1    0.04 1.0
|140>     S 1
|141>      1    0.02 1.0
|142>     S 1
|143>      1    0.01 1.0
|144>   end
|145> end
|146>
|147> * xyz 0 1
|148> 54  0.0 0.0 0.0
|149> *
|150>
|151>
|152>                          ****END OF INPUT****

CARTESIAN COORDINATES (ANGSTROEM)
---------------------------------
  Xe     0.000000    0.000000    0.000000

 Total Charge           Charge          ....    0
 Multiplicity           Mult            ....    1
 Number of Electrons    NEL             ....   26
 Basis Dimension        Dim             ....   25

ORBITAL ENERGIES
----------------

  NO   OCC          E(Eh)            E(eV)
   0   2.0000     -13.530014      -368.1704
   1   2.0000     -10.926670      -297.3298
   2   2.0000     -10.926665      -297.3297
   3   2.0000     -10.923601      -297.2463
   4   2.0000      -3.660399       -99.6045
   5   2.0000      -2.666942       -72.5712
   6   2.0000      -2.666940       -72.5711
   7   2.0000      -2.215066       -60.2750
   8   2.0000      -0.417914       -11.3720
   9   2.0000      -0.417903       -11.3717
  10   2.0000      -0.872851       -23.7515
  11   2.0000      -0.771824       -21.0024
  12   2.0000       0.079787         2.1711
  13   0.0000       0.267706         7.2846
  14   0.0000       0.267706         7.2847
  15   0.0000       0.267713         7.2848
  16   0.0000       1.539962        41.9045
  17   0.0000       1.539963        41.9045

CleanUpVectors: The p-vectors have cracked symmetry
CleanUpVectors: The p-vectors have cracked symmetry
CleanUpVectors: The p-vectors have cracked symmetry
CleanUpVectors: The p-vectors have cracked symmetry
CleanUpVectors: The p-vectors have cracked symmetry
CleanUpVectors: The p-vectors have cracked symmetry
CleanUpVectors: The p-vectors have cracked symmetry
CleanUpVectors: The p-vectors have cracked symmetry
CleanUpVectors: The p-vectors have cracked symmetry
CleanUpVectors: The p-vectors have cracked symmetry
CleanUpVectors: The p-vectors have cracked symmetry
CleanUpVectors: The p-vectors have cracked symmetry
--------------------------
ATOM BASIS FOR ELEMENT Xe
--------------------------
 NewGTO Xe
 S 17
    1      18774.299999999999         0.000080394810
    2       2824.810000000000         0.000592320520
    3        640.088000000000         0.002479233813
    4        172.616000000000         0.005311968312
    5         29.516900000000        -0.055745519040
    6         18.444800000000         0.442210424569
    7         11.523800000000        -0.606302126264
    8          6.618900000000        -0.565865905559
    9          2.995520000000         0.705193643771
   10          1.653258653600         0.896222158611
   11         27.052171835000         0.021921674433
   12         20.940622415000        -0.047127205794
   13          6.002459107100         0.100800248308
   14          0.875538892700        -0.199022703579
   15          0.410336166500         0.171433118010
   16          0.194935857800        -0.106817200881
   17          0.090171093000         0.024243160279
 P 31
    1        613.331000000000        -0.000120620858
    2        141.710000000000        -0.000745576808
    3         20.310600000000        -0.048094510171
    4         11.033100000000         0.221127761131
    5          6.895130000000        -0.008518629998
    6          3.241660000000        -0.460454413682
    7          1.665350000000        -0.438633400185
    8        613.331000000000        -0.000095653226
    9        141.710000000000        -0.000591247886
   10         20.310600000000        -0.038139299831
   11         11.033100000000         0.175355938812
   12          6.895130000000        -0.006755336159
   13          3.241660000000        -0.365143732195
   14          1.665350000000        -0.347839508211
   15        613.331000000000         0.000003546101
   16        141.710000000000         0.000021919019
   17         20.310600000000         0.001413918035
   18         11.033100000000        -0.006500877719
   19          6.895130000000         0.000250436995
   20          3.241660000000         0.013536779928
   21          1.665350000000         0.012895269610
   22         18.388908413000         0.001754702459
   23          6.113904543100        -0.018084737605
   24          1.872981569100        -0.052208018150
   25         18.388908413000         0.001391491938
   26          6.113904543100        -0.014341329758
   27          1.872981569100        -0.041401341873
   28         18.388908413000        -0.000051586043
   29          6.113904543100         0.000531668512
   30          1.872981569100         0.001534849990
   31          0.820046659900         0.140477537112
 S 17
    1      18774.299999999999         0.000066045606
    2       2824.810000000000         0.000486600661
    3        640.088000000000         0.002036729731
    4        172.616000000000         0.004363865858
    5         29.516900000000        -0.045795824261
    6         18.444800000000         0.363282847462
    7         11.523800000000        -0.498086771849
    8          6.618900000000        -0.464867777944
    9          2.995520000000         0.579327715241
   10          1.653258653600         1.656608969140
   11         27.052171835000         0.054927834177
   12         20.940622415000        -0.118083833102
   13          6.002459107100         0.252569179463
   14          0.875538892700        -1.729519995411
   15          0.410336166500        -0.177048848888
   16          0.194935857800        -0.426916801304
   17          0.090171093000         0.117987950064
 P 31
    1        613.331000000000        -0.000086034443
    2        141.710000000000        -0.000531792647
    3         20.310600000000        -0.034304053679
    4         11.033100000000         0.157722337968
    5          6.895130000000        -0.006076026966
    6          3.241660000000        -0.328425279043
    7          1.665350000000        -0.312861148840
    8        613.331000000000        -0.000068225945
    9        141.710000000000        -0.000421715475
   10         20.310600000000        -0.027203366558
   11         11.033100000000         0.125074972604
   12          6.895130000000        -0.004818334017
   13          3.241660000000        -0.260443658825
   14          1.665350000000        -0.248101189243
   15        613.331000000000         0.000002529304
   16        141.710000000000         0.000015634032
   17         20.310600000000         0.001008495839
   18         11.033100000000        -0.004636837473
   19          6.895130000000         0.000178627516
   20          3.241660000000         0.009655288279
   21          1.665350000000         0.009197722514
   22         18.388908413000         0.007226198290
   23          6.113904543100        -0.074476387330
   24          1.872981569100        -0.215002543379
   25         18.388908413000         0.005730428326
   26          6.113904543100        -0.059060322241
   27          1.872981569100        -0.170498596264
   28         18.388908413000        -0.000212441100
   29          6.113904543100         0.002189511696
   30          1.872981569100         0.006320803146
   31          0.820046659900         1.016317396196
 S 17
    1      18774.299999999999         0.000030446765
    2       2824.810000000000         0.000224320995
    3        640.088000000000         0.000938924413
    4        172.616000000000         0.002011725035
    5         29.516900000000        -0.021111695265
    6         18.444800000000         0.167471967025
    7         11.523800000000        -0.229616047147
    8          6.618900000000        -0.214302221320
    9          2.995520000000         0.267067803231
   10          1.653258653600         0.754544299410
   11         27.052171835000         0.038043902480
   12         20.940622415000        -0.081786764367
   13          6.002459107100         0.174933480940
   14          0.875538892700        -0.560165306323
   15          0.410336166500        -3.066709434721
   16          0.194935857800         5.842696613755
   17          0.090171093000        -3.387912994482
 S 17
    1      18774.299999999999        -0.000070335480
    2       2824.810000000000        -0.000518206933
    3        640.088000000000        -0.002169021851
    4        172.616000000000        -0.004647312925
    5         29.516900000000         0.048770409750
    6         18.444800000000        -0.386879232154
    7         11.523800000000         0.530439103264
    8          6.618900000000         0.495062429290
    9          2.995520000000        -0.616956906178
   10          1.653258653600        -4.826635085176
   11         27.052171835000        -0.038931026891
   12         20.940622415000         0.083693904024
   13          6.002459107100        -0.179012656603
   14          0.875538892700        11.934626022153
   15          0.410336166500       -13.192772472950
   16          0.194935857800         8.428293785426
   17          0.090171093000        -2.464868808070
 S 17
    1      18774.299999999999        -0.000237792486
    2       2824.810000000000        -0.001751970906
    3        640.088000000000        -0.007333099843
    4        172.616000000000        -0.015711787165
    5         29.516900000000         0.164884592509
    6         18.444800000000        -1.307973930717
    7         11.523800000000         1.793325826872
    8          6.618900000000         1.673723213272
    9          2.995520000000        -2.085828037769
   10          1.653258653600        10.763260293351
   11         27.052171835000        -1.265064695155
   12         20.940622415000         2.719635510201
   13          6.002459107100        -5.817020765746
   14          0.875538892700       -11.600753557897
   15          0.410336166500         7.323232322063
   16          0.194935857800        -3.478669446454
   17          0.090171093000         0.898306341911
 S 17
    1      18774.299999999999         0.000477228209
    2       2824.810000000000         0.003516048599
    3        640.088000000000         0.014716874200
    4        172.616000000000         0.031532148765
    5         29.516900000000        -0.330908600375
    6         18.444800000000         2.624986459645
    7         11.523800000000        -3.599044218481
    8          6.618900000000        -3.359012491652
    9          2.995520000000         4.186069941999
   10          1.653258653600        -7.987753435864
   11         27.052171835000         1.013563226203
   12         20.940622415000        -2.178957765854
   13          6.002459107100         4.660566654653
   14          0.875538892700         6.641582133307
   15          0.410336166500        -3.736585827899
   16          0.194935857800         1.713977965180
   17          0.090171093000        -0.439605875230
 P 31
    1        613.331000000000         0.000075445632
    2        141.710000000000         0.000466341517
    3         20.310600000000         0.030082033889
    4         11.033100000000        -0.138310438770
    5          6.895130000000         0.005328211377
    6          3.241660000000         0.288003874611
    7          1.665350000000         0.274355321685
    8        613.331000000000        -0.000094658509
    9        141.710000000000        -0.000585099381
   10         20.310600000000        -0.037742681638
   11         11.033100000000         0.173532377394
   12          6.895130000000        -0.006685086070
   13          3.241660000000        -0.361346529621
   14          1.665350000000        -0.344222255717
   15        613.331000000000         0.000012950869
   16        141.710000000000         0.000080051392
   17         20.310600000000         0.005163830770
   18         11.033100000000        -0.023742134661
   19          6.895130000000         0.000914631702
   20          3.241660000000         0.049438255238
   21          1.665350000000         0.047095367858
   22         18.388908413000        -0.006629854841
   23          6.113904543100         0.068330208679
   24          1.872981569100         0.197259415801
   25         18.388908413000         0.008318204198
   26          6.113904543100        -0.085731081944
   27          1.872981569100        -0.247493216649
   28         18.388908413000        -0.001138069605
   29          6.113904543100         0.011729447396
   30          1.872981569100         0.033861215790
   31          0.820046659900        -0.989064274390
 P 31
    1        613.331000000000         0.000003413023
    2        141.710000000000         0.000021096441
    3         20.310600000000         0.001360856437
    4         11.033100000000        -0.006256912403
    5          6.895130000000         0.000241038581
    6          3.241660000000         0.013028770866
    7          1.665350000000         0.012411335185
    8        613.331000000000        -0.000004282179
    9        141.710000000000        -0.000026468831
   10         20.310600000000        -0.001707410192
   11         11.033100000000         0.007850288771
   12          6.895130000000        -0.000302421121
   13          3.241660000000        -0.016346659031
   14          1.665350000000        -0.015571988061
   15        613.331000000000         0.000000585874
   16        141.710000000000         0.000003621379
   17         20.310600000000         0.000233602301
   18         11.033100000000        -0.001074050940
   19          6.895130000000         0.000041376273
   20          3.241660000000         0.002236496646
   21          1.665350000000         0.002130508687
   22         18.388908413000         0.000437828050
   23          6.113904543100        -0.004512449029
   24          1.872981569100        -0.013026786783
   25         18.388908413000        -0.000549324716
   26          6.113904543100         0.005661582848
   27          1.872981569100         0.016344169683
   28         18.388908413000         0.000075156818
   29          6.113904543100        -0.000774599325
   30          1.872981569100        -0.002236156061
   31          0.820046659900         0.176265033132
 P 31
    1        613.331000000000        -0.000028762109
    2        141.710000000000        -0.000177783193
    3         20.310600000000        -0.011468161921
    4         11.033100000000         0.052728034050
    5          6.895130000000        -0.002031271923
    6          3.241660000000        -0.109795603587
    7          1.665350000000        -0.104592371135
    8        613.331000000000        -0.000022808563
    9        141.710000000000        -0.000140983376
   10         20.310600000000        -0.009094336531
   11         11.033100000000         0.041813717799
   12          6.895130000000        -0.001610813536
   13          3.241660000000        -0.087068719073
   14          1.665350000000        -0.082942517569
   15        613.331000000000         0.000000845570
   16        141.710000000000         0.000005226602
   17         20.310600000000         0.000337149517
   18         11.033100000000        -0.001550137792
   19          6.895130000000         0.000059716836
   20          3.241660000000         0.003227852461
   21          1.665350000000         0.003074883980
   22         18.388908413000         0.003102678644
   23          6.113904543100        -0.031977574818
   24          1.872981569100        -0.092314627005
   25         18.388908413000         0.002460446925
   26          6.113904543100        -0.025358451409
   27          1.872981569100        -0.073206176409
   28         18.388908413000        -0.000091214844
   29          6.113904543100         0.000940100425
   30          1.872981569100         0.002713933766
   31          0.820046659900         0.451276140304
 P 14
    1        613.331000000000        -0.000116717055
    2        141.710000000000        -0.000721446780
    3         20.310600000000        -0.046537967779
    4         11.033100000000         0.213971128638
    5          6.895130000000        -0.008242930990
    6          3.241660000000        -0.445552155360
    7          1.665350000000        -0.424437362436
    8         18.388908413000         0.014594211817
    9          6.113904543100        -0.150414385062
   10          1.872981569100        -0.434224544298
   11          0.820046659900         4.174633490688
   12          0.395526482500        -5.549299530743
   13          0.174455098100         3.611031198663
   14          0.073389992700        -1.152052380643
 P 14
    1        613.331000000000        -0.000729749236
    2        141.710000000000        -0.004510696712
    3         20.310600000000        -0.290969014123
    4         11.033100000000         1.337810207907
    5          6.895130000000        -0.051537220428
    6          3.241660000000        -2.785722659822
    7          1.665350000000        -2.653706786038
    8         18.388908413000        -0.120538317347
    9          6.113904543100         1.242321072692
   10          1.872981569100         3.586401004385
   11          0.820046659900         0.889357422924
   12          0.395526482500        -0.763783952053
   13          0.174455098100         0.384055336680
   14          0.073389992700        -0.114879759667
 end
  // -----------------------------------------------
  // The basis set
  // -----------------------------------------------
  BAS[ATNO] = new BFNGauss[NSH];
  // Basis function   1 L = s
  InitBFNGauss(BAS[ATNO][  0]);
  BAS[ATNO][  0].l  = 0;
  BAS[ATNO][  0].ng = 17;
  BAS[ATNO][  0].a[  0] =     18774.299999999999;     BAS[ATNO][  0].d[  0] =         0.000080394810;
  BAS[ATNO][  0].a[  1] =      2824.810000000000;     BAS[ATNO][  0].d[  1] =         0.000592320520;
  BAS[ATNO][  0].a[  2] =       640.088000000000;     BAS[ATNO][  0].d[  2] =         0.002479233813;
  BAS[ATNO][  0].a[  3] =       172.616000000000;     BAS[ATNO][  0].d[  3] =         0.005311968312;
  BAS[ATNO][  0].a[  4] =        29.516900000000;     BAS[ATNO][  0].d[  4] =        -0.055745519040;
  BAS[ATNO][  0].a[  5] =        18.444800000000;     BAS[ATNO][  0].d[  5] =         0.442210424569;
  BAS[ATNO][  0].a[  6] =        11.523800000000;     BAS[ATNO][  0].d[  6] =        -0.606302126264;
  BAS[ATNO][  0].a[  7] =         6.618900000000;     BAS[ATNO][  0].d[  7] =        -0.565865905559;
  BAS[ATNO][  0].a[  8] =         2.995520000000;     BAS[ATNO][  0].d[  8] =         0.705193643771;
  BAS[ATNO][  0].a[  9] =         1.653258653600;     BAS[ATNO][  0].d[  9] =         0.896222158611;
  BAS[ATNO][  0].a[ 10] =        27.052171835000;     BAS[ATNO][  0].d[ 10] =         0.021921674433;
  BAS[ATNO][  0].a[ 11] =        20.940622415000;     BAS[ATNO][  0].d[ 11] =        -0.047127205794;
  BAS[ATNO][  0].a[ 12] =         6.002459107100;     BAS[ATNO][  0].d[ 12] =         0.100800248308;
  BAS[ATNO][  0].a[ 13] =         0.875538892700;     BAS[ATNO][  0].d[ 13] =        -0.199022703579;
  BAS[ATNO][  0].a[ 14] =         0.410336166500;     BAS[ATNO][  0].d[ 14] =         0.171433118010;
  BAS[ATNO][  0].a[ 15] =         0.194935857800;     BAS[ATNO][  0].d[ 15] =        -0.106817200881;
  BAS[ATNO][  0].a[ 16] =         0.090171093000;     BAS[ATNO][  0].d[ 16] =         0.024243160279;

FINAL SINGLE POINT ENERGY      -283.276155217932

DIPOLE MOMENT
-------------
                                X             Y             Z
Electronic contribution:      0.00000      -0.00000      -0.00000
Nuclear contribution   :      0.00000       0.00000       0.00000
                        -----------------------------------------
Total Dipole Moment    :      0.00000      -0.00000      -0.00000
                        -----------------------------------------
Magnitude (a.u.)       :      0.00000
Magnitude (Debye)      :      0.00000

Rotational constants in cm-1:     0.000000     0.000000     0.000000
Rotational constants in MHz :     0.000000     0.000000     0.000000

                             ****ORCA TERMINATED NORMALLY****
TOTAL RUN TIME: 0 days 0 hours 0 minutes 0 seconds 980 msec
