                         Program Version 4.2.0 -  RELEASE  -
|  1> #
|  2> # 54_Xe CCSD(T)/Def2-QZVP
|  3> #
|  4> ! CCSD(T) Def2-QZVP tightscf
|  5>
|  6> *xyz 0 1
|  7>  Xe 0.0 0.0 0.0
|  8> *
|  9>
| 10> %maxcore 5000
| 11>
| 12> %pal
| 13> nprocs 24
| 14> end
| 15>
| 16>
| 17>                          ****END OF INPUT****

CARTESIAN COORDINATES (ANGSTROEM)
---------------------------------
  Xe     0.000000    0.000000    0.000000

 Total Charge           Charge          ....    0
 Multiplicity           Mult            ....    1
 Number of Electrons    NEL             ....   26
 Basis Dimension        Dim             ....   82

ORBITAL ENERGIES
----------------

  NO   OCC          E(Eh)            E(eV)
   0   2.0000      -8.399950      -228.5743
   1   2.0000      -6.133618      -166.9042
   2   2.0000      -6.133618      -166.9042
   3   2.0000      -6.133618      -166.9042
   4   2.0000      -2.663952       -72.4898
   5   2.0000      -2.663952       -72.4898
   6   2.0000      -2.663952       -72.4898
   7   2.0000      -2.663952       -72.4898
   8   2.0000      -2.663952       -72.4898
   9   2.0000      -1.009597       -27.4725
  10   2.0000      -0.456207       -12.4140
  11   2.0000      -0.456207       -12.4140
  12   2.0000      -0.456207       -12.4140
  13   0.0000       0.197827         5.3831
  14   0.0000       0.224206         6.1010
  15   0.0000       0.224206         6.1010
  16   0.0000       0.224206         6.1010
  17   0.0000       0.323440         8.8013

E(0)                                       ...   -328.299133061
E(0)                                       ...   -328.299133061
E(CORR)                                    ...     -0.651663729
E(TOT)                                     ...   -328.950796790
E(CCSD(T))                                 ...   -328.964391932

MULLIKEN ATOMIC CHARGES
-----------------------
   0 Xe:   -0.000000
Sum of atomic charges:   -0.0000000

LOEWDIN ATOMIC CHARGES
----------------------
   0 Xe:   -0.000000

FINAL SINGLE POINT ENERGY      -328.964391932256

DIPOLE MOMENT
-------------
                                X             Y             Z
Electronic contribution:     -0.00000       0.00000       0.00000
Nuclear contribution   :      0.00000       0.00000       0.00000
                        -----------------------------------------
Total Dipole Moment    :     -0.00000       0.00000       0.00000
                        -----------------------------------------
Magnitude (a.u.)       :      0.00000
Magnitude (Debye)      :      0.00000

Rotational constants in cm-1:     0.000000     0.000000     0.000000
Rotational constants in MHz :     0.000000     0.000000     0.000000

                             ****ORCA TERMINATED NORMALLY****
TOTAL RUN TIME: 0 days 0 hours 0 minutes 12 seconds 700 msec
