                         Program Version 4.2.0 -  RELEASE  -
|  1> #
|  2> # 56_Ba CCSD(T)/Def2-QZVP
|  3> #
|  4> ! CCSD(T) Def2-QZVP tightscf
|  5>
|  6> *xyz 0 1
|  7>  Ba 0.0 0.0 0.0
|  8> *
|  9>
| 10> %maxcore 5000
| 11>
| 12> %pal
| 13> nprocs 15
| 14> end
| 15>
| 16> %method
| 17> NewNCore Ba 46 end
| 18> end
| 19>
| 20>
| 21>                          ****END OF INPUT****

CARTESIAN COORDINATES (ANGSTROEM)
---------------------------------
  Ba     0.000000    0.000000    0.000000

 Total Charge           Charge          ....    0
 Multiplicity           Mult            ....    1
 Number of Electrons    NEL             ....   10
 Basis Dimension        Dim             ....   60

ORBITAL ENERGIES
----------------

  NO   OCC          E(Eh)            E(eV)
   0   2.0000      -1.631835       -44.4045
   1   2.0000      -0.911892       -24.8138
   2   2.0000      -0.911892       -24.8138
   3   2.0000      -0.911891       -24.8138
   4   2.0000      -0.162532        -4.4227
   5   0.0000       0.014149         0.3850
   6   0.0000       0.014149         0.3850
   7   0.0000       0.014149         0.3850
   8   0.0000       0.051029         1.3886
   9   0.0000       0.058451         1.5905

E(0)                                       ...    -25.095221686
E(0)                                       ...    -25.095221686
E(CORR)                                    ...     -0.209660851
E(TOT)                                     ...    -25.304882537
E(CCSD(T))                                 ...    -25.312927835

MULLIKEN ATOMIC CHARGES
-----------------------
   0 Ba:    0.000000
Sum of atomic charges:    0.0000000

LOEWDIN ATOMIC CHARGES
----------------------
   0 Ba:    0.000000

FINAL SINGLE POINT ENERGY       -25.312927835222

DIPOLE MOMENT
-------------
                                X             Y             Z
Electronic contribution:      0.00000       0.00000       0.00000
Nuclear contribution   :      0.00000       0.00000       0.00000
                        -----------------------------------------
Total Dipole Moment    :      0.00000       0.00000       0.00000
                        -----------------------------------------
Magnitude (a.u.)       :      0.00000
Magnitude (Debye)      :      0.00000

Rotational constants in cm-1:     0.000000     0.000000     0.000000
Rotational constants in MHz :     0.000000     0.000000     0.000000

                             ****ORCA TERMINATED NORMALLY****
TOTAL RUN TIME: 0 days 0 hours 0 minutes 8 seconds 673 msec
