                         Program Version 4.2.0 -  RELEASE  -
|  1> # input to generate an atomic fitting density for Ba
|  2> # this file is use internally by ORCA
|  3> #
|  4> # atomic ground state (S=1): 1s2 2s2 2p6 3s2 3p6 4s2 3d10 4p6 5s2 4d10 5p6 6s2
|  5> #
|  6> ! RHF AllowRHF def2-SVP def2/J  NoMulliken NoLoewdin NoMayer NoPrintMOs
|  7>
|  8> %output print[p_atomdensfit] 2 end
|  9>
| 10> %scf
| 11>   guess hcore
| 12>   maxiter 1000
| 13>   maxdisk 500000
| 14>   SCFMode Conventional
| 15>   lshift 1.000000
| 16>   hftyp rohf
| 17>   rohf_case sahf
| 18>   rohf_numop   2
| 19>   rohf_norb[1] 1
| 20>   rohf_nel[1]  2
| 21> end
| 22>
| 23> %basis
| 24>   NewECP 56
| 25>     N_core 46
| 26>     lmax f
| 27>     s 3
| 28>       1       9.5269860000    427.8458160000  2
| 29>       2       4.4875100000    204.4175300000  2
| 30>       3       3.5894650000     33.4731740000  2
| 31>     p 3
| 32>       1       8.3159300000    293.6058640000  2
| 33>       2       4.2922170000    294.1933160000  2
| 34>       3       3.5894650000     33.4731740000  2
| 35>     d 3
| 36>       1       5.9161080000    112.5504020000  2
| 37>       2       2.8748420000    181.7826210000  2
| 38>       3       3.5894650000     33.4731740000  2
| 39>     f 1
| 40>       1       3.5894650000    -33.4731740000  2
| 41>   end
| 42>   NewGTO 56
| 43>     s 2
| 44>      1       5.7000000000      3.1943476910
| 45>      2       5.2043612469     -4.1734671994
| 46>     s 1
| 47>      1       2.1475437282      1.0000000000
| 48>     s 1
| 49>      1       0.4103366054      1.0000000000
| 50>     s 1
| 51>      1       0.1839353277      1.0000000000
| 52>     s 1
| 53>      1       0.0725212165      1.0000000000
| 54>     s 1
| 55>      1       0.0345263349      1.0000000000
| 56>     s 1
| 57>      1       0.0161578919      1.0000000000
| 58>     p 4
| 59>      1       5.6000000000      1.0960872467
| 60>      2       5.1104879274     -1.5044499387
| 61>      3       2.5006544803      0.9134374981
| 62>      4       0.5194799534     -1.2185468782
| 63>     p 1
| 64>      1       0.2453699484      1.0000000000
| 65>     p 1
| 66>      1       0.1125605670      1.0000000000
| 67>     p 1
| 68>      1       0.0349176220      1.0000000000
| 69>     p 1
| 70>      1       0.0163200657      1.0000000000
| 71>   end
| 72>   NewAuxGTO 56
| 73>     S 1
| 74>      1 1310.72 1.0
| 75>     S 1
| 76>      1  655.36 1.0
| 77>     S 1
| 78>      1  327.68 1.0
| 79>     S 1
| 80>      1  163.84 1.0
| 81>     S 1
| 82>      1   81.82 1.0
| 83>     S 1
| 84>      1   40.96 1.0
| 85>     S 1
| 86>      1   20.48 1.0
| 87>     S 1
| 88>      1   10.24 1.0
| 89>     S 1
| 90>      1    5.12 1.0
| 91>     S 1
| 92>      1    2.56 1.0
| 93>     S 1
| 94>      1    1.28 1.0
| 95>     S 1
| 96>      1    0.64 1.0
| 97>     S 1
| 98>      1    0.32 1.0
| 99>     S 1
|100>      1    0.16 1.0
|101>     S 1
|102>      1    0.08 1.0
|103>     S 1
|104>      1    0.04 1.0
|105>     S 1
|106>      1    0.02 1.0
|107>     S 1
|108>      1    0.01 1.0
|109>   end
|110> end
|111>
|112> * xyz 0 1
|113> 56  0.0 0.0 0.0
|114> *
|115>
|116>
|117>                          ****END OF INPUT****

CARTESIAN COORDINATES (ANGSTROEM)
---------------------------------
  Ba     0.000000    0.000000    0.000000

 Total Charge           Charge          ....    0
 Multiplicity           Mult            ....    1
 Number of Electrons    NEL             ....   10
 Basis Dimension        Dim             ....   22

ORBITAL ENERGIES
----------------

  NO   OCC          E(Eh)            E(eV)
   0   2.0000      -1.555322       -42.3225
   1   2.0000      -0.911505       -24.8033
   2   2.0000      -0.911505       -24.8033
   3   2.0000      -0.911505       -24.8033
   4   2.0000      -0.238560        -6.4915
   5   0.0000       0.014260         0.3880
   6   0.0000       0.014260         0.3880
   7   0.0000       0.014260         0.3880
   8   0.0000       0.051047         1.3891
   9   0.0000       0.090307         2.4574

--------------------------
ATOM BASIS FOR ELEMENT Ba
--------------------------
 NewGTO Ba
 S 8
    1          5.700000000000        -1.388286430274
    2          5.204361246900         1.813818795131
    3          2.147543728200        -0.992253810396
    4          0.410336605400         1.045975758988
    5          0.183935327700         0.411836712158
    6          0.072521216500        -0.062825452048
    7          0.034526334900        -0.162328487292
    8          0.016157891900        -0.064200929760
 S 8
    1          5.700000000000        -0.113880319952
    2          5.204361246900         0.148786489747
    3          2.147543728200        -0.091625809493
    4          0.410336605400         0.187142519371
    5          0.183935327700         0.277920856018
    6          0.072521216500        -0.255310848442
    7          0.034526334900        -0.711963592040
    8          0.016157891900        -0.270561964726
 S 8
    1          5.700000000000        -0.246084095574
    2          5.204361246900         0.321512872274
    3          2.147543728200        -0.183339071999
    4          0.410336605400         0.362033818761
    5          0.183935327700        -0.296096219236
    6          0.072521216500         1.555781428756
    7          0.034526334900        -4.180278669083
    8          0.016157891900         3.073752073004
 S 8
    1          5.700000000000        -0.418052913894
    2          5.204361246900         0.546192929676
    3          2.147543728200        -0.305787707156
    4          0.410336605400        -0.016762935918
    5          0.183935327700         2.696158072901
    6          0.072521216500        -7.154716041142
    7          0.034526334900         6.987064338628
    8          0.016157891900        -2.398687021218
 S 8
    1          5.700000000000        -1.858499538973
    2          5.204361246900         2.428159867461
    3          2.147543728200        -1.439406797110
    4          0.410336605400         5.003357258292
    5          0.183935327700        -7.887403836849
    6          0.072521216500         7.014678609367
    7          0.034526334900        -4.360858999014
    8          0.016157891900         1.238630533248
 S 8
    1          5.700000000000        -8.238773378915
    2          5.204361246900        10.764091384625
    3          2.147543728200        -3.853696019115
    4          0.410336605400         2.249596226422
    5          0.183935327700        -2.264842928317
    6          0.072521216500         1.630920188768
    7          0.034526334900        -0.993129024700
    8          0.016157891900         0.288993559891
 S 8
    1          5.700000000000        -7.628318741326
    2          5.204361246900         9.966522474429
    3          2.147543728200        -1.834845639874
    4          0.410336605400         0.834118939086
    5          0.183935327700        -0.826696848943
    6          0.072521216500         0.594849683730
    7          0.034526334900        -0.363024326236
    8          0.016157891900         0.105864956792
 P 8
    1          5.600000000000        -0.513869422595
    2          5.110487927400         0.705318690323
    3          2.500654480300        -0.428239267575
    4          0.519479953400         0.571281148093
    5          0.245369948400         0.483958693151
    6          0.112560567000         0.106967311860
    7          0.034917622000         0.004474006021
    8          0.016320065700        -0.000215961602
 P 8
    1          5.600000000000        -0.082687981025
    2          5.110487927400         0.113494549234
    3          2.500654480300        -0.068909024111
    4          0.519479953400         0.091926241681
    5          0.245369948400         0.159598482528
    6          0.112560567000        -0.101811452379
    7          0.034917622000         0.026224534632
    8          0.016320065700        -1.003296248933
 P 8
    1          5.600000000000        -0.112067740190
    2          5.110487927400         0.153820150145
    3          2.500654480300        -0.093392999987
    4          0.519479953400         0.124588435242
    5          0.245369948400         0.130386840956
    6          0.112560567000         0.305837906083
    7          0.034917622000        -2.201784874052
    8          0.016320065700         1.735644085238
 P 8
    1          5.600000000000        -0.342603258384
    2          5.110487927400         0.470244912188
    3          2.500654480300        -0.285512548496
    4          0.519479953400         0.380880383585
    5          0.245369948400         1.275063020419
    6          0.112560567000        -2.689720038259
    7          0.034917622000         2.033559068528
    8          0.016320065700        -0.924270919938
 P 8
    1          5.600000000000        -2.689050960512
    2          5.110487927400         3.690894648107
    3          2.500654480300        -2.240952979819
    4          0.519479953400         2.989483422162
    5          0.245369948400        -4.038040287644
    6          0.112560567000         2.485953369329
    7          0.034917622000        -1.085186724117
    8          0.016320065700         0.473913535456
 end
  // -----------------------------------------------
  // The basis set
  // -----------------------------------------------
  BAS[ATNO] = new BFNGauss[NSH];
  // Basis function   1 L = s
  InitBFNGauss(BAS[ATNO][  0]);
  BAS[ATNO][  0].l  = 0;
  BAS[ATNO][  0].ng = 8;
  BAS[ATNO][  0].a[  0] =         5.700000000000;     BAS[ATNO][  0].d[  0] =        -1.388286430274;
  BAS[ATNO][  0].a[  1] =         5.204361246900;     BAS[ATNO][  0].d[  1] =         1.813818795131;
  BAS[ATNO][  0].a[  2] =         2.147543728200;     BAS[ATNO][  0].d[  2] =        -0.992253810396;
  BAS[ATNO][  0].a[  3] =         0.410336605400;     BAS[ATNO][  0].d[  3] =         1.045975758988;
  BAS[ATNO][  0].a[  4] =         0.183935327700;     BAS[ATNO][  0].d[  4] =         0.411836712158;
  BAS[ATNO][  0].a[  5] =         0.072521216500;     BAS[ATNO][  0].d[  5] =        -0.062825452048;
  BAS[ATNO][  0].a[  6] =         0.034526334900;     BAS[ATNO][  0].d[  6] =        -0.162328487292;
  BAS[ATNO][  0].a[  7] =         0.016157891900;     BAS[ATNO][  0].d[  7] =        -0.064200929760;

FINAL SINGLE POINT ENERGY       -25.095220572246

DIPOLE MOMENT
-------------
                                X             Y             Z
Electronic contribution:     -0.00000      -0.00000       0.00000
Nuclear contribution   :      0.00000       0.00000       0.00000
                        -----------------------------------------
Total Dipole Moment    :     -0.00000      -0.00000       0.00000
                        -----------------------------------------
Magnitude (a.u.)       :      0.00000
Magnitude (Debye)      :      0.00000

Rotational constants in cm-1:     0.000000     0.000000     0.000000
Rotational constants in MHz :     0.000000     0.000000     0.000000

                             ****ORCA TERMINATED NORMALLY****
TOTAL RUN TIME: 0 days 0 hours 0 minutes 1 seconds 132 msec
