                         Program Version 4.2.0 -  RELEASE  -
|  1> #
|  2> # 57_La CCSD(T)/Def2-QZVP
|  3> #
|  4> ! CCSD(T) Def2-QZVP verytightscf kdiis UNO
|  5>
|  6> *xyz 0 2
|  7>  La 0.0 0.0 0.0
|  8> *
|  9>
| 10> %maxcore 5000
| 11>
| 12> %pal
| 13> nprocs 24
| 14> end
| 15>
| 16> %method
| 17> NewNCore La 46 end
| 18> end
| 19>
| 20> %mdci
| 21> UseQROs true
| 22> maxdiis 40
| 23> maxiter 200
| 24> end
| 25>
| 26>
| 27>                          ****END OF INPUT****

CARTESIAN COORDINATES (ANGSTROEM)
---------------------------------
  La     0.000000    0.000000    0.000000

 Total Charge           Charge          ....    0
 Multiplicity           Mult            ....    2
 Number of Electrons    NEL             ....   11
 Basis Dimension        Dim             ....   72

ORBITAL ENERGIES
----------------
                 SPIN UP ORBITALS
  NO   OCC          E(Eh)            E(eV)
   0   1.0000      -1.859692       -50.6048
   1   1.0000      -1.090350       -29.6699
   2   1.0000      -1.068705       -29.0809
   3   1.0000      -1.068679       -29.0802
   4   1.0000      -0.244578        -6.6553
   5   1.0000      -0.186126        -5.0648
   6   0.0000       0.015611         0.4248
   7   0.0000       0.017990         0.4895
   8   0.0000       0.017999         0.4898
   9   0.0000       0.035878         0.9763
  10   0.0000       0.035878         0.9763

                 SPIN DOWN ORBITALS
  NO   OCC          E(Eh)            E(eV)
   0   1.0000      -1.837679       -50.0058
   1   1.0000      -1.049660       -28.5627
   2   1.0000      -1.049628       -28.5618
   3   1.0000      -1.021048       -27.7841
   4   1.0000      -0.173269        -4.7149
   5   0.0000       0.017457         0.4750
   6   0.0000       0.017472         0.4754
   7   0.0000       0.027028         0.7355
   8   0.0000       0.042844         1.1658
   9   0.0000       0.044478         1.2103

E(0)                                       ...    -31.073816712
E(0)                                       ...    -31.073816712
E(CORR)                                    ...     -0.253091916
E(TOT)                                     ...    -31.326908628
E(CCSD(T))                                 ...    -31.339448525

MULLIKEN ATOMIC CHARGES AND SPIN DENSITIES
------------------------------------------
   0 La:   -0.000000    1.000000
Sum of atomic charges       :   -0.0000000

LOEWDIN ATOMIC CHARGES AND SPIN DENSITIES
-----------------------------------------
   0 La:   -0.000000    1.000000

FINAL SINGLE POINT ENERGY       -31.339448525392

DIPOLE MOMENT
-------------
                                X             Y             Z
Electronic contribution:     -0.00000       0.00000      -0.00000
Nuclear contribution   :      0.00000       0.00000       0.00000
                        -----------------------------------------
Total Dipole Moment    :     -0.00000       0.00000      -0.00000
                        -----------------------------------------
Magnitude (a.u.)       :      0.00000
Magnitude (Debye)      :      0.00000

Rotational constants in cm-1:     0.000000     0.000000     0.000000
Rotational constants in MHz :     0.000000     0.000000     0.000000

                             ****ORCA TERMINATED NORMALLY****
TOTAL RUN TIME: 0 days 0 hours 0 minutes 21 seconds 241 msec
