                         Program Version 4.2.0 -  RELEASE  -
|  1> # input to generate an atomic fitting density for La
|  2> # this file is use internally by ORCA
|  3> #
|  4> # atomic ground state (S=2): 1s2 2s2 2p6 3s2 3p6 4s2 3d10 4p6 5s2 4d10 5p6 6s2 5d1
|  5> #
|  6> ! RHF AllowRHF def2-SVP def2/J  NoMulliken NoLoewdin NoMayer NoPrintMOs
|  7>
|  8> %output print[p_atomdensfit] 2 end
|  9>
| 10> %scf
| 11>   guess hcore
| 12>   maxiter 1000
| 13>   maxdisk 500000
| 14>   SCFMode Conventional
| 15>   lshift 0.100000
| 16>   hftyp rohf
| 17>   rohf_case sahf
| 18>   rohf_numop   2
| 19>   rohf_norb[1] 5
| 20>   rohf_nel[1]  1
| 21> end
| 22>
| 23> %basis
| 24>   NewECP 57
| 25>     N_core 46
| 26>     lmax f
| 27>     s 3
| 28>       1       3.3099000000     91.9321770000  2
| 29>       2       1.6550000000     -3.7887640000  2
| 30>       3       4.0286000000     36.0100160000  2
| 31>     p 3
| 32>       1       2.8368000000     63.7594860000  2
| 33>       2       1.4184000000     -0.6479580000  2
| 34>       3       4.0286000000     36.0100160000  2
| 35>     d 3
| 36>       1       2.0213000000     36.1161730000  2
| 37>       2       1.0107000000      0.2191140000  2
| 38>       3       4.0286000000     36.0100160000  2
| 39>     f 1
| 40>       1       4.0286000000    -36.0100160000  2
| 41>   end
| 42>   NewGTO 57
| 43>     s 3
| 44>      1      26.0772720000      0.0056580801
| 45>      2       5.7127838000     -0.7265123195
| 46>      3       4.4057848000      1.7078303146
| 47>     s 1
| 48>      1       2.1315325829      1.0000000000
| 49>     s 1
| 50>      1       0.4938580896      1.0000000000
| 51>     s 1
| 52>      1       0.2359568789      1.0000000000
| 53>     s 1
| 54>      1       0.0635934897      1.0000000000
| 55>     s 1
| 56>      1       0.0315453948      1.0000000000
| 57>     s 1
| 58>      1       0.0157776553      1.0000000000
| 59>     p 4
| 60>      1       6.0000000000     -0.0332796858
| 61>      2       3.6808191615      0.4284807406
| 62>      3       2.3265462081     -1.0389154466
| 63>      4       0.6434262963      1.3382857902
| 64>     p 1
| 65>      1       0.3358428196      1.0000000000
| 66>     p 1
| 67>      1       0.1651905192      1.0000000000
| 68>     p 1
| 69>      1       0.0567159718      1.0000000000
| 70>     p 1
| 71>      1       0.0221008248      1.0000000000
| 72>     d 3
| 73>      1       1.2000000000     -0.8154027443
| 74>      2       1.0239524401      0.9219926576
| 75>      3       0.3750849028      0.8574478679
| 76>     d 1
| 77>      1       0.1716194025      1.0000000000
| 78>     d 1
| 79>      1       0.0787804234      1.0000000000
| 80>     d 1
| 81>      1       0.0350000478      1.0000000000
| 82>     f 1
| 83>      1       0.6558000000      1.0000000000
| 84>     f 1
| 85>      1       0.2568300000      1.0000000000
| 86>     f 1
| 87>      1       0.1005800000      1.0000000000
| 88>   end
| 89>   NewAuxGTO 57
| 90>     S 1
| 91>      1 1310.72 1.0
| 92>     S 1
| 93>      1  655.36 1.0
| 94>     S 1
| 95>      1  327.68 1.0
| 96>     S 1
| 97>      1  163.84 1.0
| 98>     S 1
| 99>      1   81.82 1.0
|100>     S 1
|101>      1   40.96 1.0
|102>     S 1
|103>      1   20.48 1.0
|104>     S 1
|105>      1   10.24 1.0
|106>     S 1
|107>      1    5.12 1.0
|108>     S 1
|109>      1    2.56 1.0
|110>     S 1
|111>      1    1.28 1.0
|112>     S 1
|113>      1    0.64 1.0
|114>     S 1
|115>      1    0.32 1.0
|116>     S 1
|117>      1    0.16 1.0
|118>     S 1
|119>      1    0.08 1.0
|120>     S 1
|121>      1    0.04 1.0
|122>     S 1
|123>      1    0.02 1.0
|124>     S 1
|125>      1    0.01 1.0
|126>   end
|127> end
|128>
|129> * xyz 0 2
|130> 57  0.0 0.0 0.0
|131> *
|132>
|133>
|134>                          ****END OF INPUT****

CARTESIAN COORDINATES (ANGSTROEM)
---------------------------------
  La     0.000000    0.000000    0.000000

 Total Charge           Charge          ....    0
 Multiplicity           Mult            ....    2
 Number of Electrons    NEL             ....   11
 Basis Dimension        Dim             ....   63

ORBITAL ENERGIES
----------------

  NO   OCC          E(Eh)            E(eV)
   0   2.0000      -1.851882       -50.3923
   1   2.0000      -1.060429       -28.8557
   2   2.0000      -1.060428       -28.8557
   3   2.0000      -1.060423       -28.8556
   4   2.0000      -0.179556        -4.8860
   5   0.2000      -0.233988        -6.3671
   6   0.2000      -0.233988        -6.3671
   7   0.2000      -0.233984        -6.3670
   8   0.2000      -0.233983        -6.3670
   9   0.2000      -0.233982        -6.3670
  10   0.0000      -0.134467        -3.6590
  11   0.0000      -0.134466        -3.6590
  12   0.0000      -0.134466        -3.6590
  13   0.0000      -0.066302        -1.8042
  14   0.0000      -0.023064        -0.6276

CleanUpVectors: The p-vectors have cracked symmetry
CleanUpVectors: The p-vectors have cracked symmetry
CleanUpVectors: The p-vectors have cracked symmetry
CleanUpVectors: The d-vectors have cracked symmetry at i=5
CleanUpVectors: The d-vectors have cracked symmetry at i=6
CleanUpVectors: The d-vectors have cracked symmetry at i=7
CleanUpVectors: The d-vectors have cracked symmetry at i=8
CleanUpVectors: The d-vectors have cracked symmetry at i=9
CleanUpVectors: The d-vectors have cracked symmetry at i=14
CleanUpVectors: The d-vectors have cracked symmetry at i=15
CleanUpVectors: The d-vectors have cracked symmetry at i=16
CleanUpVectors: The d-vectors have cracked symmetry at i=17
CleanUpVectors: The d-vectors have cracked symmetry at i=18
CleanUpVectors: The f-vectors have cracked symmetry
CleanUpVectors: The f-vectors have cracked symmetry
CleanUpVectors: The f-vectors have cracked symmetry
CleanUpVectors: The f-vectors have cracked symmetry
CleanUpVectors: The f-vectors have cracked symmetry
CleanUpVectors: The f-vectors have cracked symmetry
CleanUpVectors: The f-vectors have cracked symmetry
CleanUpVectors: The d-vectors have cracked symmetry at i=30
CleanUpVectors: The d-vectors have cracked symmetry at i=31
CleanUpVectors: The d-vectors have cracked symmetry at i=32
CleanUpVectors: The d-vectors have cracked symmetry at i=33
CleanUpVectors: The d-vectors have cracked symmetry at i=34
CleanUpVectors: The p-vectors have cracked symmetry
CleanUpVectors: The p-vectors have cracked symmetry
CleanUpVectors: The p-vectors have cracked symmetry
CleanUpVectors: The f-vectors have cracked symmetry
CleanUpVectors: The f-vectors have cracked symmetry
CleanUpVectors: The f-vectors have cracked symmetry
CleanUpVectors: The f-vectors have cracked symmetry
CleanUpVectors: The f-vectors have cracked symmetry
CleanUpVectors: The f-vectors have cracked symmetry
CleanUpVectors: The f-vectors have cracked symmetry
CleanUpVectors: The d-vectors have cracked symmetry at i=46
CleanUpVectors: The d-vectors have cracked symmetry at i=47
CleanUpVectors: The d-vectors have cracked symmetry at i=48
CleanUpVectors: The d-vectors have cracked symmetry at i=49
CleanUpVectors: The d-vectors have cracked symmetry at i=50
CleanUpVectors: The f-vectors have cracked symmetry
CleanUpVectors: The f-vectors have cracked symmetry
CleanUpVectors: The f-vectors have cracked symmetry
CleanUpVectors: The f-vectors have cracked symmetry
CleanUpVectors: The f-vectors have cracked symmetry
CleanUpVectors: The f-vectors have cracked symmetry
--------------------------
ATOM BASIS FOR ELEMENT La
--------------------------
 NewGTO La
 S 9
    1         26.077272000000         0.002301390803
    2          5.712783800000        -0.295504613016
    3          4.405784800000         0.694649935958
    4          2.131532582900        -0.970681028009
    5          0.493858089600         0.912663364347
    6          0.235956878900         0.437861474622
    7          0.063593489700         0.014433162085
    8          0.031545394800        -0.005056516869
    9          0.015777655300         0.001212800334
 P 26
    1          6.000000000000         0.009419112182
    2          3.680819161500        -0.121272423903
    3          2.326546208100         0.294043074756
    4          0.643426296300        -0.378773527663
    5          6.000000000000         0.000038121890
    6          3.680819161500        -0.000490824810
    7          2.326546208100         0.001190077940
    8          0.643426296300        -0.001533006754
    9          6.000000000000        -0.006417914781
   10          3.680819161500         0.082631575756
   11          2.326546208100        -0.200352576663
   12          0.643426296300         0.258085494113
   13          0.335842819600        -0.423125871193
   14          0.335842819600        -0.001712508861
   15          0.335842819600         0.288305864471
   16          0.165190519200        -0.161055427805
   17          0.165190519200        -0.000651850723
   18          0.165190519200         0.109738745070
   19          0.056715971800        -0.011074989909
   20          0.056715971800        -0.000044825703
   21          0.056715971800         0.007546135641
   22          0.022100824800         0.000475766247
   23          0.022100824800        -0.000324202207
   24          0.655800000000         0.000001775716
   25          0.655800000000        -0.000000485358
   26          0.655800000000         0.000002630423
 S 9
    1         26.077272000000         0.000774432234
    2          5.712783800000        -0.099439129351
    3          4.405784800000         0.233753998391
    4          2.131532582900        -0.343948991417
    5          0.493858089600         0.423682689534
    6          0.235956878900         0.367435423156
    7          0.063593489700        -0.491985347435
    8          0.031545394800        -0.595194259873
    9          0.015777655300        -0.152507445783
 D 26
    1         26.077272000000        -0.000000000282
    2          5.712783800000         0.000000165304
    3          4.405784800000        -0.000000503859
    4          2.131532582900         0.000001544408
    5          0.493858089600        -0.000017009079
    6          0.235956878900         0.000033474968
    7          0.063593489700        -0.000229720741
    8          0.031545394800         0.001394829665
    9          0.015777655300        -0.002445319122
   10          1.200000000000         0.231679060746
   11          1.023952440100        -0.261964280131
   12          0.375084902800        -0.243625273599
   13          1.200000000000        -0.036871021464
   14          1.023952440100         0.041690822487
   15          0.375084902800         0.038772225091
   16          1.200000000000        -0.157790042034
   17          1.023952440100         0.178416446614
   18          0.375084902800         0.165926269029
   19          1.200000000000        -0.219651394475
   20          1.023952440100         0.248364350443
   21          0.375084902800         0.230977417221
   22          1.200000000000         0.000206342797
   23          1.023952440100        -0.000233316045
   24          0.375084902800        -0.000216982580
   25          0.171619402500        -0.265071409930
   26          0.171619402500         0.042185771296
 D 26
    1          5.712783800000         0.000000047781
    2          4.405784800000        -0.000000145639
    3          2.131532582900         0.000000446738
    4          0.493858089600        -0.000003193267
    5          0.063593489700         0.000017118698
    6          0.015777655300         0.000055063819
    7          1.200000000000         0.270728572771
    8          1.023952440100        -0.306118366711
    9          0.375084902800        -0.284688320127
   10          1.200000000000        -0.009771442907
   11          1.023952440100         0.011048771515
   12          0.375084902800         0.010275293952
   13          1.200000000000         0.153597596726
   14          1.023952440100        -0.173675962457
   15          0.375084902800        -0.161517646032
   16          1.200000000000         0.176869054015
   17          1.023952440100        -0.199989477958
   18          0.375084902800        -0.185989064082
   19          1.200000000000         0.008681400486
   20          1.023952440100        -0.009816238125
   21          0.375084902800        -0.009129044989
   22          0.171619402500        -0.309517880825
   23          0.171619402500         0.011171577316
   24          0.171619402500        -0.175602990533
   25          0.171619402500        -0.202207769523
   26          0.171619402500        -0.009925189780
 P 8
    1          6.000000000000         0.002120089603
    2          3.680819161500        -0.027296458523
    3          2.326546208100         0.066184333880
    4          0.643426296300        -0.085255786557
    5          0.335842819600        -0.172758094304
    6          0.165190519200         0.047720140599
    7          0.056715971800         0.005195328306
    8          0.022100824800         0.994815532337
 D 26
    1         26.077272000000        -0.000000000124
    2          5.712783800000         0.000000072581
    3          4.405784800000        -0.000000221232
    4          2.131532582900         0.000000675497
    5          0.493858089600        -0.000003339604
    6          0.235956878900        -0.000010270534
    7          0.063593489700         0.000077321839
    8          0.031545394800         0.000331536840
    9          0.015777655300        -0.001007759011
   10          1.200000000000         0.104188625811
   11          1.023952440100        -0.117808222593
   12          0.375084902800        -0.109560969332
   13          1.200000000000        -0.008115290308
   14          1.023952440100         0.009176125701
   15          0.375084902800         0.008533744117
   16          1.200000000000         0.079613148403
   17          1.023952440100        -0.090020224716
   18          0.375084902800        -0.083718291154
   19          1.200000000000         0.058935553706
   20          1.023952440100        -0.066639643009
   21          0.375084902800        -0.061974484660
   22          1.200000000000        -0.004864656908
   23          1.023952440100         0.005500567642
   24          0.375084902800         0.005115496266
   25          0.171619402500         0.075217151311
   26          0.171619402500        -0.005858952173
 P 8
    1          6.000000000000         0.003319813141
    2          3.680819161500        -0.042743071615
    3          2.326546208100         0.103636950574
    4          0.643426296300        -0.133500621968
    5          0.335842819600        -0.117483408494
    6          0.165190519200        -0.522585748722
    7          0.056715971800         2.048000510000
    8          0.022100824800        -1.396092862329
 F 26
    1          3.680819161500         0.000000003533
    2          2.326546208100        -0.000000013554
    3          0.643426296300         0.000000063130
    4          3.680819161500         0.000000005622
    5          2.326546208100        -0.000000021566
    6          0.643426296300         0.000000100450
    7          0.335842819600         0.000000494673
    8          0.655800000000         0.090121723593
    9          0.655800000000        -0.011511146185
   10          0.655800000000         0.001455802738
   11          0.655800000000         0.008135178378
   12          0.655800000000        -0.005026300679
   13          0.655800000000        -0.001937341754
   14          0.655800000000         0.074886122470
   15          0.256830000000        -0.071929109497
   16          0.256830000000         0.009187432020
   17          0.256830000000        -0.001161944189
   18          0.256830000000        -0.006492922878
   19          0.256830000000         0.004011660814
   20          0.256830000000         0.001546261639
   21          0.256830000000        -0.059769167160
   22          0.100580000000         0.788700970621
   23          0.100580000000        -0.100739905040
   24          0.100580000000         0.012740548040
   25          0.100580000000         0.071194923991
   26          0.100580000000        -0.043987743275
 D 26
    1          5.712783800000         0.000000035515
    2          4.405784800000        -0.000000108252
    3          2.131532582900         0.000000318901
    4          0.493858089600        -0.000004037090
    5          0.235956878900         0.000012453365
    6          0.063593489700        -0.000125866829
    7          0.031545394800         0.000458954321
    8          0.015777655300        -0.000564747197
    9          1.200000000000         0.101977688690
   10          1.023952440100        -0.115308270507
   11          0.375084902800        -0.107236028272
   12          1.200000000000        -0.007343017300
   13          1.023952440100         0.008302900723
   14          0.375084902800         0.007721649911
   15          1.200000000000         0.079841090751
   16          1.023952440100        -0.090277963818
   17          0.375084902800        -0.083957987036
   18          1.200000000000         0.067272421347
   19          1.023952440100        -0.076066310758
   20          0.375084902800        -0.070741231441
   21          1.200000000000        -0.004220504668
   22          1.023952440100         0.004772211453
   23          0.375084902800         0.004438129199
   24          0.171619402500        -0.875183953815
   25          0.171619402500         0.063020665762
   26          0.171619402500        -0.685189085880
 P 26
    1          6.000000000000         0.005283465828
    2          3.680819161500        -0.068025382352
    3          2.326546208100         0.164937682816
    4          0.643426296300        -0.212465564839
    5          6.000000000000        -0.000374445469
    6          3.680819161500         0.004821039268
    7          2.326546208100        -0.011689328572
    8          0.643426296300         0.015057685759
    9          6.000000000000         0.007775555569
   10          3.680819161500        -0.100111396146
   11          2.326546208100         0.242735007625
   12          0.643426296300        -0.312680702314
   13          0.335842819600        -0.985671653293
   14          0.335842819600         0.069855706499
   15          0.335842819600        -1.450590292437
   16          0.165190519200         1.782551663058
   17          0.165190519200        -0.126331498502
   18          0.165190519200         2.623340009623
   19          0.056715971800        -1.081579411987
   20          0.056715971800         0.076652753463
   21          0.056715971800        -1.591735132794
   22          0.022100824800         0.388278686378
   23          0.022100824800        -0.027517754248
   24          0.022100824800         0.571420709878
   25          0.655800000000        -0.000002806588
   26          0.655800000000         0.000001471441
 F 26
    1          3.680819161500        -0.000000001833
    2          2.326546208100         0.000000007030
    3          3.680819161500         0.000000001492
    4          2.326546208100        -0.000000005725
    5          0.335842819600         0.000000300418
    6          0.165190519200        -0.000001210925
    7          0.655800000000         0.023631690586
    8          0.655800000000         0.162662707158
    9          0.655800000000         0.008222168715
   10          0.655800000000        -0.005862270593
   11          0.655800000000         0.078679431248
   12          0.655800000000        -0.125421758840
   13          0.655800000000         0.001926765815
   14          0.256830000000         0.114560347582
   15          0.256830000000         0.788546942342
   16          0.256830000000         0.039858924058
   17          0.256830000000        -0.028418753641
   18          0.256830000000         0.381417383604
   19          0.256830000000        -0.608012328571
   20          0.256830000000         0.009340482358
   21          0.100580000000        -0.077082145096
   22          0.100580000000        -0.530575283988
   23          0.100580000000        -0.026819159412
   24          0.100580000000         0.019121615552
   25          0.100580000000        -0.256637426481
   26          0.100580000000         0.409102200975
 D 26
    1          5.712783800000        -0.000000030795
    2          4.405784800000         0.000000093867
    3          2.131532582900        -0.000000292617
    4          0.493858089600         0.000003475480
    5          0.235956878900        -0.000007665777
    6          0.063593489700         0.000022986793
    7          0.031545394800        -0.000060002032
    8          0.015777655300         0.000069745770
    9          1.200000000000         1.280498359904
   10          1.023952440100        -1.447885838198
   11          0.375084902800        -1.346525500710
   12          1.200000000000        -0.007553984004
   13          1.023952440100         0.008541445115
   14          0.375084902800         0.007943494823
   15          1.200000000000         0.308053686034
   16          1.023952440100        -0.348322640137
   17          0.375084902800        -0.323938051638
   18          1.200000000000         0.459116203161
   19          1.023952440100        -0.519132135940
   20          0.375084902800        -0.482789900170
   21          1.200000000000         0.132955242605
   22          1.023952440100        -0.150335227994
   23          0.375084902800        -0.139810897246
   24          0.171619402500         2.464858151078
   25          0.171619402500        -0.014536962234
   26          0.171619402500         0.593000553502
 F 26
    1          3.680819161500        -0.000000003724
    2          2.326546208100         0.000000014284
    3          0.643426296300        -0.000000066530
    4          3.680819161500        -0.000000006413
    5          2.326546208100         0.000000024602
    6          0.643426296300        -0.000000114590
    7          0.335842819600        -0.000000553386
    8          0.335842819600        -0.000000815184
    9          0.165190519200         0.000001813686
   10          0.165190519200         0.000002758054
   11          0.655800000000         1.022015737064
   12          0.655800000000        -0.112620797178
   13          0.655800000000         0.028451909924
   14          0.655800000000         0.103831745425
   15          0.655800000000        -0.047934286935
   16          0.655800000000        -0.037065767777
   17          0.655800000000         0.839472058796
   18          0.256830000000        -1.010937375502
   19          0.256830000000         0.111400009291
   20          0.256830000000        -0.028143504022
   21          0.256830000000        -0.102706226579
   22          0.256830000000         0.047414693058
   23          0.256830000000         0.036663989235
   24          0.256830000000        -0.830372367174
   25          0.100580000000         0.382688011597
   26          0.100580000000        -0.042170217461
 P 24
    1          6.000000000000         0.001942046925
    2          3.680819161500        -0.025004133442
    3          2.326546208100         0.060626249911
    4          0.643426296300        -0.078096104003
    5          6.000000000000         0.090427632591
    6          3.680819161500        -1.164268773933
    7          2.326546208100         2.822943247201
    8          0.643426296300        -3.636392977537
    9          6.000000000000         0.003658578550
   10          3.680819161500        -0.047104724973
   11          2.326546208100         0.114212429510
   12          0.643426296300        -0.147123494966
   13          0.335842819600         0.091506476397
   14          0.335842819600         4.260820823484
   15          0.335842819600         0.172386994347
   16          0.165190519200        -0.049780027426
   17          0.165190519200        -2.317910011315
   18          0.165190519200        -0.093779475326
   19          0.056715971800         0.016795619285
   20          0.056715971800         0.782055330212
   21          0.056715971800         0.031640890367
   22          0.022100824800        -0.005578551439
   23          0.022100824800        -0.259754401701
   24          0.022100824800        -0.010509307980
 end
  // -----------------------------------------------
  // The basis set
  // -----------------------------------------------
  BAS[ATNO] = new BFNGauss[NSH];
  // Basis function   1 L = s
  InitBFNGauss(BAS[ATNO][  0]);
  BAS[ATNO][  0].l  = 0;
  BAS[ATNO][  0].ng = 9;
  BAS[ATNO][  0].a[  0] =        26.077272000000;     BAS[ATNO][  0].d[  0] =        -0.002301390803;
  BAS[ATNO][  0].a[  1] =         5.712783800000;     BAS[ATNO][  0].d[  1] =         0.295504613016;
  BAS[ATNO][  0].a[  2] =         4.405784800000;     BAS[ATNO][  0].d[  2] =        -0.694649935958;
  BAS[ATNO][  0].a[  3] =         2.131532582900;     BAS[ATNO][  0].d[  3] =         0.970681028009;
  BAS[ATNO][  0].a[  4] =         0.493858089600;     BAS[ATNO][  0].d[  4] =        -0.912663364347;
  BAS[ATNO][  0].a[  5] =         0.235956878900;     BAS[ATNO][  0].d[  5] =        -0.437861474622;
  BAS[ATNO][  0].a[  6] =         0.063593489700;     BAS[ATNO][  0].d[  6] =        -0.014433162085;
  BAS[ATNO][  0].a[  7] =         0.031545394800;     BAS[ATNO][  0].d[  7] =         0.005056516869;
  BAS[ATNO][  0].a[  8] =         0.015777655300;     BAS[ATNO][  0].d[  8] =        -0.001212800334;

FINAL SINGLE POINT ENERGY       -31.070586791515

DIPOLE MOMENT
-------------
                                X             Y             Z
Electronic contribution:      0.00000      -0.00000       0.00000
Nuclear contribution   :      0.00000       0.00000       0.00000
                        -----------------------------------------
Total Dipole Moment    :      0.00000      -0.00000       0.00000
                        -----------------------------------------
Magnitude (a.u.)       :      0.00000
Magnitude (Debye)      :      0.00000

Rotational constants in cm-1:     0.000000     0.000000     0.000000
Rotational constants in MHz :     0.000000     0.000000     0.000000

                             ****ORCA TERMINATED NORMALLY****
TOTAL RUN TIME: 0 days 0 hours 0 minutes 2 seconds 756 msec
