                         Program Version 4.2.0 -  RELEASE  -
|  1> #
|  2> # 63_Eu CCSD(T)/Def2-QZVP
|  3> #
|  4> ! CCSD(T) Def2-QZVP tightscf
|  5>
|  6> *xyz 0 8
|  7>  Eu 0.0 0.0 0.0
|  8> *
|  9>
| 10> %maxcore 5000
| 11>
| 12> %pal
| 13> nprocs 24
| 14> end
| 15>
| 16>
| 17>                          ****END OF INPUT****

CARTESIAN COORDINATES (ANGSTROEM)
---------------------------------
  Eu     0.000000    0.000000    0.000000

 Total Charge           Charge          ....    0
 Multiplicity           Mult            ....    8
 Number of Electrons    NEL             ....   35
 Basis Dimension        Dim             ....  118

ORBITAL ENERGIES
----------------
                 SPIN UP ORBITALS
  NO   OCC          E(Eh)            E(eV)
   0   1.0000     -14.807050      -402.9203
   1   1.0000     -10.794359      -293.7294
   2   1.0000     -10.794359      -293.7294
   3   1.0000     -10.794359      -293.7294
   4   1.0000      -5.904898      -160.6804
   5   1.0000      -5.904898      -160.6804
   6   1.0000      -5.904898      -160.6804
   7   1.0000      -5.904898      -160.6804
   8   1.0000      -5.904898      -160.6804
   9   1.0000      -2.104347       -57.2622
  10   1.0000      -1.146983       -31.2110
  11   1.0000      -1.146983       -31.2110
  12   1.0000      -1.146983       -31.2110
  13   1.0000      -0.544959       -14.8291
  14   1.0000      -0.544959       -14.8291
  15   1.0000      -0.544959       -14.8291
  16   1.0000      -0.544959       -14.8291
  17   1.0000      -0.544959       -14.8291
  18   1.0000      -0.544959       -14.8291
  19   1.0000      -0.544959       -14.8291
  20   1.0000      -0.184775        -5.0280
  21   0.0000       0.026810         0.7295
  22   0.0000       0.026810         0.7295
  23   0.0000       0.026810         0.7295
  24   0.0000       0.045677         1.2429
  25   0.0000       0.095057         2.5866

                 SPIN DOWN ORBITALS
  NO   OCC          E(Eh)            E(eV)
   0   1.0000     -14.331330      -389.9753
   1   1.0000     -10.265414      -279.3361
   2   1.0000     -10.265414      -279.3361
   3   1.0000     -10.265414      -279.3361
   4   1.0000      -5.218909      -142.0137
   5   1.0000      -5.218909      -142.0137
   6   1.0000      -5.218909      -142.0137
   7   1.0000      -5.218909      -142.0137
   8   1.0000      -5.218909      -142.0137
   9   1.0000      -1.935554       -52.6691
  10   1.0000      -1.017952       -27.6999
  11   1.0000      -1.017952       -27.6999
  12   1.0000      -1.017952       -27.6999
  13   1.0000      -0.176799        -4.8109
  14   0.0000       0.028340         0.7712
  15   0.0000       0.028340         0.7712
  16   0.0000       0.028340         0.7712
  17   0.0000       0.047296         1.2870
  18   0.0000       0.112977         3.0742

E(0)                                       ...   -708.380626001
E(0)                                       ...   -708.380626001
E(CORR)                                    ...     -1.119276963
E(TOT)                                     ...   -709.499902964
E(CCSD(T))                                 ...   -709.536968338

MULLIKEN ATOMIC CHARGES AND SPIN DENSITIES
------------------------------------------
   0 Eu:   -0.000000    7.000000
Sum of atomic charges       :   -0.0000000

LOEWDIN ATOMIC CHARGES AND SPIN DENSITIES
-----------------------------------------
   0 Eu:   -0.000000    7.000000

FINAL SINGLE POINT ENERGY      -709.536968337582

DIPOLE MOMENT
-------------
                                X             Y             Z
Electronic contribution:     -0.00000      -0.00000       0.00000
Nuclear contribution   :      0.00000       0.00000       0.00000
                        -----------------------------------------
Total Dipole Moment    :     -0.00000      -0.00000       0.00000
                        -----------------------------------------
Magnitude (a.u.)       :      0.00000
Magnitude (Debye)      :      0.00000

Rotational constants in cm-1:     0.000000     0.000000     0.000000
Rotational constants in MHz :     0.000000     0.000000     0.000000

                             ****ORCA TERMINATED NORMALLY****
TOTAL RUN TIME: 0 days 0 hours 4 minutes 11 seconds 63 msec
