                         Program Version 4.2.0 -  RELEASE  -
|  1> #
|  2> # 68_Er CCSD(T)/Def2-QZVP
|  3> #
|  4> ! CCSD(T) Def2-QZVP verytightscf veryslowconv kdiis
|  5>
|  6> *xyz 0 3
|  7>  Er 0.0 0.0 0.0
|  8> *
|  9>
| 10> %maxcore 5000
| 11>
| 12> %pal
| 13> nprocs 24
| 14> end
| 15>
| 16> %scf
| 17> diismaxeq 40
| 18> directresetfreq 1
| 19> end
| 20>
| 21>
| 22>                          ****END OF INPUT****

CARTESIAN COORDINATES (ANGSTROEM)
---------------------------------
  Er     0.000000    0.000000    0.000000

 Total Charge           Charge          ....    0
 Multiplicity           Mult            ....    3
 Number of Electrons    NEL             ....   40
 Basis Dimension        Dim             ....  118

ORBITAL ENERGIES
----------------
                 SPIN UP ORBITALS
  NO   OCC          E(Eh)            E(eV)
   0   1.0000     -17.778736      -483.7840
   1   1.0000     -12.411239      -337.7270
   2   1.0000     -12.344737      -335.9174
   3   1.0000     -12.344512      -335.9112
   4   1.0000      -6.330925      -172.2732
   5   1.0000      -6.297602      -171.3665
   6   1.0000      -6.297466      -171.3628
   7   1.0000      -6.288565      -171.1206
   8   1.0000      -6.232657      -169.5992
   9   1.0000      -2.322164       -63.1893
  10   1.0000      -1.245435       -33.8900
  11   1.0000      -1.219117       -33.1739
  12   1.0000      -1.219028       -33.1714
  13   1.0000      -0.608183       -16.5495
  14   1.0000      -0.608105       -16.5474
  15   1.0000      -0.577956       -15.7270
  16   1.0000      -0.557823       -15.1791
  17   1.0000      -0.547378       -14.8949
  18   1.0000      -0.532263       -14.4836
  19   1.0000      -0.532236       -14.4829
  20   1.0000      -0.191811        -5.2194
  21   0.0000       0.028034         0.7628
  22   0.0000       0.028834         0.7846
  23   0.0000       0.028837         0.7847
  24   0.0000       0.031748         0.8639
  25   0.0000       0.116736         3.1766

                 SPIN DOWN ORBITALS
  NO   OCC          E(Eh)            E(eV)
   0   1.0000     -17.608715      -479.1575
   1   1.0000     -12.188506      -331.6661
   2   1.0000     -12.178367      -331.3902
   3   1.0000     -12.178332      -331.3893
   4   1.0000      -6.148229      -167.3018
   5   1.0000      -6.061072      -164.9301
   6   1.0000      -6.060999      -164.9282
   7   1.0000      -6.001820      -163.3178
   8   1.0000      -6.000482      -163.2814
   9   1.0000      -2.275403       -61.9169
  10   1.0000      -1.200777       -32.6748
  11   1.0000      -1.188495       -32.3406
  12   1.0000      -1.188454       -32.3395
  13   1.0000      -0.527329       -14.3493
  14   1.0000      -0.507938       -13.8217
  15   1.0000      -0.442193       -12.0327
  16   1.0000      -0.442071       -12.0294
  17   1.0000      -0.422445       -11.4953
  18   1.0000      -0.189987        -5.1698
  19   0.0000       0.028315         0.7705
  20   0.0000       0.029227         0.7953
  21   0.0000       0.029230         0.7954
  22   0.0000       0.031962         0.8697
  23   0.0000       0.120257         3.2724

E(0)                                       ...  -1012.321279464
E(0)                                       ...  -1012.321279464
E(CORR)                                    ...     -1.503129274
E(TOT)                                     ...  -1013.824408738
E(CCSD(T))                                 ...  -1013.882207204

MULLIKEN ATOMIC CHARGES AND SPIN DENSITIES
------------------------------------------
   0 Er:    0.000000    2.000000
Sum of atomic charges       :    0.0000000

LOEWDIN ATOMIC CHARGES AND SPIN DENSITIES
-----------------------------------------
   0 Er:    0.000000    2.000000

FINAL SINGLE POINT ENERGY     -1013.882207204225

DIPOLE MOMENT
-------------
                                X             Y             Z
Electronic contribution:      0.00000       0.00000      -0.00000
Nuclear contribution   :      0.00000       0.00000       0.00000
                        -----------------------------------------
Total Dipole Moment    :      0.00000       0.00000      -0.00000
                        -----------------------------------------
Magnitude (a.u.)       :      0.00000
Magnitude (Debye)      :      0.00000

Rotational constants in cm-1:     0.000000     0.000000     0.000000
Rotational constants in MHz :     0.000000     0.000000     0.000000

                             ****ORCA TERMINATED NORMALLY****
TOTAL RUN TIME: 0 days 0 hours 3 minutes 57 seconds 339 msec
