                         Program Version 4.2.0 -  RELEASE  -
|  1> #
|  2> # 70_Yb CCSD(T)/Def2-QZVP
|  3> #
|  4> ! CCSD(T) Def2-QZVP tightscf slowconv
|  5>
|  6> *xyz 0 1
|  7>  Yb 0.0 0.0 0.0
|  8> *
|  9>
| 10> %maxcore 5000
| 11>
| 12> %pal
| 13> nprocs 24
| 14> end
| 15>
| 16>
| 17>                          ****END OF INPUT****

CARTESIAN COORDINATES (ANGSTROEM)
---------------------------------
  Yb     0.000000    0.000000    0.000000

 Total Charge           Charge          ....    0
 Multiplicity           Mult            ....    1
 Number of Electrons    NEL             ....   42
 Basis Dimension        Dim             ....  121

ORBITAL ENERGIES
----------------

  NO   OCC          E(Eh)            E(eV)
   0   2.0000     -18.803434      -511.6674
   1   2.0000     -12.952799      -352.4636
   2   2.0000     -12.952799      -352.4636
   3   2.0000     -12.952799      -352.4636
   4   2.0000      -6.212307      -169.0455
   5   2.0000      -6.212307      -169.0455
   6   2.0000      -6.212307      -169.0455
   7   2.0000      -6.212307      -169.0455
   8   2.0000      -6.212307      -169.0455
   9   2.0000      -2.377822       -64.7038
  10   2.0000      -1.274360       -34.6771
  11   2.0000      -1.274360       -34.6771
  12   2.0000      -1.274360       -34.6771
  13   2.0000      -0.527867       -14.3640
  14   2.0000      -0.527867       -14.3640
  15   2.0000      -0.527867       -14.3640
  16   2.0000      -0.527867       -14.3640
  17   2.0000      -0.527867       -14.3640
  18   2.0000      -0.527867       -14.3640
  19   2.0000      -0.527867       -14.3640
  20   2.0000      -0.193066        -5.2536
  21   0.0000       0.028612         0.7786
  22   0.0000       0.028612         0.7786
  23   0.0000       0.028612         0.7786
  24   0.0000       0.070455         1.9172
  25   0.0000       0.130100         3.5402

E(0)                                       ...  -1155.719217484
E(0)                                       ...  -1155.719217484
E(CORR)                                    ...     -1.711542822
E(TOT)                                     ...  -1157.430760307
E(CCSD(T))                                 ...  -1157.494884985

MULLIKEN ATOMIC CHARGES
-----------------------
   0 Yb:    0.000000
Sum of atomic charges:    0.0000000

LOEWDIN ATOMIC CHARGES
----------------------
   0 Yb:   -0.000000

FINAL SINGLE POINT ENERGY     -1157.494884984934

DIPOLE MOMENT
-------------
                                X             Y             Z
Electronic contribution:      0.00000      -0.00000      -0.00000
Nuclear contribution   :      0.00000       0.00000       0.00000
                        -----------------------------------------
Total Dipole Moment    :      0.00000      -0.00000      -0.00000
                        -----------------------------------------
Magnitude (a.u.)       :      0.00000
Magnitude (Debye)      :      0.00000

Rotational constants in cm-1:     0.000000     0.000000     0.000000
Rotational constants in MHz :     0.000000     0.000000     0.000000

                             ****ORCA TERMINATED NORMALLY****
TOTAL RUN TIME: 0 days 0 hours 0 minutes 44 seconds 196 msec
