                         Program Version 4.2.0 -  RELEASE  -
|  1> #
|  2> # 71_Lu CCSD(T)/Def2-QZVP
|  3> #
|  4> ! CCSD(T) Def2-QZVP tightscf slowconv hcore
|  5>
|  6> *xyz 0 2
|  7>  Lu 0.0 0.0 0.0
|  8> *
|  9>
| 10> %maxcore 5000
| 11>
| 12> %pal
| 13> nprocs 24
| 14> end
| 15>
| 16>
| 17>                          ****END OF INPUT****

CARTESIAN COORDINATES (ANGSTROEM)
---------------------------------
  Lu     0.000000    0.000000    0.000000

 Total Charge           Charge          ....    0
 Multiplicity           Mult            ....    2
 Number of Electrons    NEL             ....   43
 Basis Dimension        Dim             ....  118

ORBITAL ENERGIES
----------------
                 SPIN UP ORBITALS
  NO   OCC          E(Eh)            E(eV)
   0   1.0000     -20.362105      -554.0811
   1   1.0000     -13.600143      -370.0787
   2   1.0000     -13.594823      -369.9339
   3   1.0000     -13.594822      -369.9339
   4   1.0000      -6.595941      -179.4847
   5   1.0000      -6.583465      -179.1452
   6   1.0000      -6.580795      -179.0725
   7   1.0000      -6.580793      -179.0725
   8   1.0000      -6.572874      -178.8570
   9   1.0000      -2.721811       -74.0642
  10   1.0000      -1.455440       -39.6045
  11   1.0000      -1.455436       -39.6044
  12   1.0000      -1.436562       -39.0908
  13   1.0000      -0.828220       -22.5370
  14   1.0000      -0.827494       -22.5173
  15   1.0000      -0.827493       -22.5172
  16   1.0000      -0.826171       -22.4812
  17   1.0000      -0.823972       -22.4214
  18   1.0000      -0.821595       -22.3567
  19   1.0000      -0.821595       -22.3567
  20   1.0000      -0.232072        -6.3150
  21   1.0000      -0.201109        -5.4725
  22   0.0000       0.024577         0.6688
  23   0.0000       0.024577         0.6688
  24   0.0000       0.030812         0.8384
  25   0.0000       0.059282         1.6132
  26   0.0000       0.106529         2.8988

                 SPIN DOWN ORBITALS
  NO   OCC          E(Eh)            E(eV)
   0   1.0000     -20.361124      -554.0544
   1   1.0000     -13.601082      -370.1043
   2   1.0000     -13.592847      -369.8802
   3   1.0000     -13.592845      -369.8801
   4   1.0000      -6.583248      -179.1393
   5   1.0000      -6.581686      -179.0968
   6   1.0000      -6.581685      -179.0967
   7   1.0000      -6.577876      -178.9931
   8   1.0000      -6.572682      -178.8518
   9   1.0000      -2.701270       -73.5053
  10   1.0000      -1.433103       -38.9967
  11   1.0000      -1.403769       -38.1985
  12   1.0000      -1.403762       -38.1983
  13   1.0000      -0.827723       -22.5235
  14   1.0000      -0.827089       -22.5062
  15   1.0000      -0.827088       -22.5062
  16   1.0000      -0.825789       -22.4709
  17   1.0000      -0.821941       -22.3662
  18   1.0000      -0.817291       -22.2396
  19   1.0000      -0.817290       -22.2396
  20   1.0000      -0.211776        -5.7627
  21   0.0000       0.022969         0.6250
  22   0.0000       0.036537         0.9942
  23   0.0000       0.036540         0.9943
  24   0.0000       0.060924         1.6578
  25   0.0000       0.115477         3.1423

E(0)                                       ...  -1232.390859153
E(0)                                       ...  -1232.390859153
E(CORR)                                    ...     -1.133083120
E(TOT)                                     ...  -1233.523942274
E(CCSD(T))                                 ...  -1233.570221145

MULLIKEN ATOMIC CHARGES AND SPIN DENSITIES
------------------------------------------
   0 Lu:    0.000000    1.000000
Sum of atomic charges       :    0.0000000

LOEWDIN ATOMIC CHARGES AND SPIN DENSITIES
-----------------------------------------
   0 Lu:    0.000000    1.000000

FINAL SINGLE POINT ENERGY     -1233.570221145021

DIPOLE MOMENT
-------------
                                X             Y             Z
Electronic contribution:     -0.00000       0.00000       0.00000
Nuclear contribution   :      0.00000       0.00000       0.00000
                        -----------------------------------------
Total Dipole Moment    :     -0.00000       0.00000       0.00000
                        -----------------------------------------
Magnitude (a.u.)       :      0.00000
Magnitude (Debye)      :      0.00000

Rotational constants in cm-1:     0.000000     0.000000     0.000000
Rotational constants in MHz :     0.000000     0.000000     0.000000

                             ****ORCA TERMINATED NORMALLY****
TOTAL RUN TIME: 0 days 0 hours 2 minutes 28 seconds 954 msec
