                         Program Version 4.2.0 -  RELEASE  -
|  1> #
|  2> # 73_Ta CCSD(T)/Def2-QZVP
|  3> #
|  4> ! CCSD(T) Def2-QZVP tightscf slowconv
|  5>
|  6> *xyz 0 4
|  7>  Ta 0.0 0.0 0.0
|  8> *
|  9>
| 10> %maxcore 5000
| 11>
| 12> %pal
| 13> nprocs 24
| 14> end
| 15>
| 16> %method
| 17> NewNCore Ta 60 end
| 18> end
| 19>
| 20>
| 21>                          ****END OF INPUT****

CARTESIAN COORDINATES (ANGSTROEM)
---------------------------------
  Ta     0.000000    0.000000    0.000000

 Total Charge           Charge          ....    0
 Multiplicity           Mult            ....    4
 Number of Electrons    NEL             ....   13
 Basis Dimension        Dim             ....   72

ORBITAL ENERGIES
----------------
                 SPIN UP ORBITALS
  NO   OCC          E(Eh)            E(eV)
   0   1.0000      -3.186159       -86.6998
   1   1.0000      -1.791204       -48.7411
   2   1.0000      -1.791203       -48.7411
   3   1.0000      -1.791203       -48.7411
   4   1.0000      -0.327844        -8.9211
   5   1.0000      -0.327844        -8.9211
   6   1.0000      -0.327844        -8.9211
   7   1.0000      -0.282922        -7.6987
   8   0.0000       0.035292         0.9603
   9   0.0000       0.035292         0.9604
  10   0.0000       0.035292         0.9604
  11   0.0000       0.079967         2.1760
  12   0.0000       0.079967         2.1760

                 SPIN DOWN ORBITALS
  NO   OCC          E(Eh)            E(eV)
   0   1.0000      -3.083057       -83.8942
   1   1.0000      -1.632419       -44.4204
   2   1.0000      -1.632419       -44.4204
   3   1.0000      -1.632419       -44.4204
   4   1.0000      -0.217455        -5.9173
   5   0.0000       0.047222         1.2850
   6   0.0000       0.047222         1.2850
   7   0.0000       0.047222         1.2850
   8   0.0000       0.114473         3.1150
   9   0.0000       0.115237         3.1358

E(0)                                       ...    -56.293373854
E(0)                                       ...    -56.293373854
E(CORR)                                    ...     -0.326933834
E(TOT)                                     ...    -56.620307688
E(CCSD(T))                                 ...    -56.633465653

MULLIKEN ATOMIC CHARGES AND SPIN DENSITIES
------------------------------------------
   0 Ta:   -0.000000    3.000000
Sum of atomic charges       :   -0.0000000

LOEWDIN ATOMIC CHARGES AND SPIN DENSITIES
-----------------------------------------
   0 Ta:   -0.000000    3.000000

FINAL SINGLE POINT ENERGY       -56.633465653229

DIPOLE MOMENT
-------------
                                X             Y             Z
Electronic contribution:     -0.00000      -0.00000       0.00000
Nuclear contribution   :      0.00000       0.00000       0.00000
                        -----------------------------------------
Total Dipole Moment    :     -0.00000      -0.00000       0.00000
                        -----------------------------------------
Magnitude (a.u.)       :      0.00000
Magnitude (Debye)      :      0.00000

Rotational constants in cm-1:     0.000000     0.000000     0.000000
Rotational constants in MHz :     0.000000     0.000000     0.000000

                             ****ORCA TERMINATED NORMALLY****
TOTAL RUN TIME: 0 days 0 hours 0 minutes 26 seconds 881 msec
