                         Program Version 4.2.0 -  RELEASE  -
|  1> # input to generate an atomic fitting density for Ta
|  2> # this file is use internally by ORCA
|  3> #
|  4> # atomic ground state (S=4): 1s2 2s2 2p6 3s2 3p6 4s2 3d10 4p6 5s2 4d10 5p6 6s2 4f14 5d3
|  5> #
|  6> ! RHF AllowRHF def2-SVP def2/J  NoMulliken NoLoewdin NoMayer NoPrintMOs
|  7>
|  8> %output print[p_atomdensfit] 2 end
|  9>
| 10> %scf
| 11>   guess hcore
| 12>   maxiter 1000
| 13>   maxdisk 500000
| 14>   SCFMode Conventional
| 15>   lshift 0.200000
| 16>   hftyp rohf
| 17>   rohf_case sahf
| 18>   rohf_numop   2
| 19>   rohf_norb[1] 5
| 20>   rohf_nel[1]  3
| 21> end
| 22>
| 23> %basis
| 24>   NewECP 73
| 25>     N_core 60
| 26>     lmax f
| 27>     s 3
| 28>       1      14.5464077000   1345.8806470000  2
| 29>       2       7.2732038000     36.7668062000  2
| 30>       3       2.0178811000    -12.0179609000  2
| 31>     p 3
| 32>       1       9.9355653000    378.4253015000  2
| 33>       2       4.9677824000     22.2930909000  2
| 34>       3       2.0178811000    -12.0179609000  2
| 35>     d 3
| 36>       1       6.3473769000    104.8839557000  2
| 37>       2       3.1736885000      8.7558481000  2
| 38>       3       2.0178811000    -12.0179609000  2
| 39>     f 1
| 40>       1       2.0178811000     12.0179609000  2
| 41>   end
| 42>   NewGTO 73
| 43>     s 4
| 44>      1      24.4736509440      2.2887030616
| 45>      2      18.7213725490     -8.2997748821
| 46>      3      11.5000000000     37.9651621324
| 47>      4      10.3500000000    -31.4510745200
| 48>     s 1
| 49>      1       3.8125414615      1.0000000000
| 50>     s 1
| 51>      1       1.0507430630      1.0000000000
| 52>     s 1
| 53>      1       0.4973227575      1.0000000000
| 54>     s 1
| 55>      1       0.1560265097      1.0000000000
| 56>     s 1
| 57>      1       0.0750564424      1.0000000000
| 58>     s 1
| 59>      1       0.0316326688      1.0000000000
| 60>     p 4
| 61>      1      17.0000000000     -0.0771704057
| 62>      2      12.0081865360      0.2448500499
| 63>      3       5.0278760583     -0.6757474915
| 64>      4       1.1937124184      1.2268252800
| 65>     p 1
| 66>      1       0.5788970705      1.0000000000
| 67>     p 1
| 68>      1       0.2722519880      1.0000000000
| 69>     p 1
| 70>      1       0.1000000000      1.0000000000
| 71>     p 1
| 72>      1       0.0417000000      1.0000000000
| 73>     d 3
| 74>      1       7.1419762952      0.1764265527
| 75>      2       5.7696869171     -0.3416152275
| 76>      3       1.2199483941      1.0661973413
| 77>     d 1
| 78>      1       0.5236603425      1.0000000000
| 79>     d 1
| 80>      1       0.2138480877      1.0000000000
| 81>     d 1
| 82>      1       0.0802542567      1.0000000000
| 83>   end
| 84>   NewAuxGTO 73
| 85>     S 1
| 86>      1 1310.72 1.0
| 87>     S 1
| 88>      1  655.36 1.0
| 89>     S 1
| 90>      1  327.68 1.0
| 91>     S 1
| 92>      1  163.84 1.0
| 93>     S 1
| 94>      1   81.82 1.0
| 95>     S 1
| 96>      1   40.96 1.0
| 97>     S 1
| 98>      1   20.48 1.0
| 99>     S 1
|100>      1   10.24 1.0
|101>     S 1
|102>      1    5.12 1.0
|103>     S 1
|104>      1    2.56 1.0
|105>     S 1
|106>      1    1.28 1.0
|107>     S 1
|108>      1    0.64 1.0
|109>     S 1
|110>      1    0.32 1.0
|111>     S 1
|112>      1    0.16 1.0
|113>     S 1
|114>      1    0.08 1.0
|115>     S 1
|116>      1    0.04 1.0
|117>     S 1
|118>      1    0.02 1.0
|119>     S 1
|120>      1    0.01 1.0
|121>   end
|122> end
|123>
|124> * xyz 0 4
|125> 73  0.0 0.0 0.0
|126> *
|127>
|128>
|129>                          ****END OF INPUT****

CARTESIAN COORDINATES (ANGSTROEM)
---------------------------------
  Ta     0.000000    0.000000    0.000000

 Total Charge           Charge          ....    0
 Multiplicity           Mult            ....    4
 Number of Electrons    NEL             ....   13
 Basis Dimension        Dim             ....   42

ORBITAL ENERGIES
----------------

  NO   OCC          E(Eh)            E(eV)
   0   2.0000      -3.136574       -85.3505
   1   2.0000      -1.712490       -46.5992
   2   2.0000      -1.712488       -46.5992
   3   2.0000      -1.712488       -46.5992
   4   2.0000      -0.249339        -6.7849
   5   0.6000      -0.312372        -8.5001
   6   0.6000      -0.312371        -8.5000
   7   0.6000      -0.312370        -8.5000
   8   0.6000      -0.312367        -8.4999
   9   0.6000      -0.312365        -8.4999
  10   0.0000      -0.066517        -1.8100
  11   0.0000      -0.066517        -1.8100
  12   0.0000      -0.066516        -1.8100
  13   0.0000       0.016525         0.4497
  14   0.0000       0.133848         3.6422

CleanUpVectors: The d-vectors have cracked symmetry at i=5
CleanUpVectors: The d-vectors have cracked symmetry at i=6
CleanUpVectors: The d-vectors have cracked symmetry at i=7
CleanUpVectors: The d-vectors have cracked symmetry at i=8
CleanUpVectors: The d-vectors have cracked symmetry at i=9
--------------------------
ATOM BASIS FOR ELEMENT Ta
--------------------------
 NewGTO Ta
 S 10
    1         24.473650944000         0.204765485519
    2         18.721372549000        -0.742563533883
    3         11.500000000000         3.396663808109
    4         10.350000000000        -2.813861986831
    5          3.812541461500        -0.615567816203
    6          1.050743063000         0.777642792469
    7          0.497322757500         0.545762504916
    8          0.156026509700         0.036665442046
    9          0.075056442400        -0.008867196837
   10          0.031632668800         0.001786427095
 S 10
    1         24.473650944000         0.065674220569
    2         18.721372549000        -0.238161627615
    3         11.500000000000         1.089408439936
    4         10.350000000000        -0.902487019749
    5          3.812541461500        -0.213587355552
    6          1.050743063000         0.327987308726
    7          0.497322757500         0.401058954297
    8          0.156026509700        -0.181623281451
    9          0.075056442400        -0.685074281062
   10          0.031632668800        -0.349954774139
 D 24
    1         24.473650944000         0.000000041510
    2         18.721372549000        -0.000000196784
    3         11.500000000000         0.000001465373
    4         10.350000000000        -0.000001348826
    5          3.812541461500        -0.000000877123
    6          1.050743063000         0.000005202228
    7          0.497322757500         0.000014061172
    8          0.156026509700        -0.000080358177
    9          0.075056442400        -0.000045828352
   10          0.031632668800         0.000091495486
   11          7.141976295200        -0.003845824411
   12          5.769686917100         0.007446680565
   13          1.219948394100        -0.023241443534
   14          7.141976295200        -0.025945889099
   15          5.769686917100         0.050239097639
   16          1.219948394100        -0.156798608552
   17          7.141976295200         0.001622022116
   18          5.769686917100        -0.003140725961
   19          1.219948394100         0.009802354812
   20          7.141976295200        -0.029483014965
   21          5.769686917100         0.057088044348
   22          1.219948394100        -0.178174496345
   23          7.141976295200        -0.000015356493
   24          5.769686917100         0.000029734820
 S 10
    1         24.473650944000         1.687842457772
    2         18.721372549000        -6.120808186522
    3         11.500000000000        27.998045547452
    4         10.350000000000       -23.194122386633
    5          3.812541461500        -1.750582393235
    6          1.050743063000         2.191907393377
    7          0.497322757500        -1.777921295561
    8          0.156026509700         1.037883493253
    9          0.075056442400        -0.679762963059
   10          0.031632668800         0.184339354271
 S 10
    1         24.473650944000         1.952159622537
    2         18.721372549000        -7.079330505047
    3         11.500000000000        32.382556663389
    4         10.350000000000       -26.826336187280
    5          3.812541461500         0.361791040518
    6          1.050743063000         0.192396666702
    7          0.497322757500        -0.191131329521
    8          0.156026509700         0.122277699363
    9          0.075056442400        -0.081711941823
   10          0.031632668800         0.022402874238
 P 8
    1         17.000000000000        -0.030802473237
    2         12.008186536000         0.097731598541
    3          5.027876058300        -0.269723786381
    4          1.193712418400         0.489685812988
    5          0.578897070500         0.496111548736
    6          0.272251988000         0.163907395561
    7          0.100000000000         0.012024031279
    8          0.041700000000        -0.000058851163
 D 24
    1          7.141976295200        -0.031221496557
    2          5.769686917100         0.060454271118
    3          1.219948394100        -0.188680649887
    4          7.141976295200        -0.015810504808
    5          5.769686917100         0.030613924685
    6          1.219948394100        -0.095547512168
    7          7.141976295200         0.001903314730
    8          5.769686917100        -0.003685393636
    9          1.219948394100         0.011502288482
   10          7.141976295200         0.018089913790
   11          5.769686917100        -0.035027550673
   12          1.219948394100         0.109322648387
   13          7.141976295200         0.002084953589
   14          5.769686917100        -0.004037101466
   15          1.219948394100         0.012599985314
   16          0.523660342500        -0.340182083239
   17          0.523660342500        -0.172267541781
   18          0.523660342500         0.020738069644
   19          0.523660342500         0.197103445932
   20          0.523660342500         0.022717163926
   21          0.213848087700        -0.313531698880
   22          0.213848087700        -0.158771839252
   23          0.213848087700         0.019113417572
   24          0.213848087700         0.181662060712
 P 8
    1         17.000000000000        -0.005626414876
    2         12.008186536000         0.017851765203
    3          5.027876058300        -0.049268054304
    4          1.193712418400         0.089446568839
    5          0.578897070500         0.175763409677
    6          0.272251988000        -0.105655603396
    7          0.100000000000         0.127262138334
    8          0.041700000000        -1.078477534161
 P 8
    1         17.000000000000        -0.008808250682
    2         12.008186536000         0.027947249978
    3          5.027876058300        -0.077129998850
    4          1.193712418400         0.140030164559
    5          0.578897070500         0.131372655814
    6          0.272251988000         0.526195838979
    7          0.100000000000        -2.200146670935
    8          0.041700000000         1.494476030861
 P 8
    1         17.000000000000        -0.023395977042
    2         12.008186536000         0.074231903982
    3          5.027876058300        -0.204868338503
    4          1.193712418400         0.371940199421
    5          0.578897070500         1.530722677007
    6          0.272251988000        -3.173204286716
    7          0.100000000000         2.225696757667
    8          0.041700000000        -0.824153200987
 P 8
    1         17.000000000000        -0.204427192586
    2         12.008186536000         0.648616627728
    3          5.027876058300        -1.790079517286
    4          1.193712418400         3.249904487462
    5          0.578897070500        -4.441197614562
    6          0.272251988000         2.901003725347
    7          0.100000000000        -1.238410332485
    8          0.041700000000         0.430904629766
 D 6
    1          7.141976295200        -0.024108806437
    2          5.769686917100         0.046681949342
    3          1.219948394100        -0.145696579860
    4          0.523660342500        -0.047125790203
    5          0.213848087700        -0.647372307483
    6          0.080254256700         1.266243991034
 D 6
    1          7.141976295200        -0.018698460167
    2          5.769686917100         0.036205880725
    3          1.219948394100        -0.113000272414
    4          0.523660342500        -1.250306052229
    5          0.213848087700         1.866379088020
    6          0.080254256700        -0.753550819800
 D 6
    1          7.141976295200        -0.318837020826
    2          5.769686917100         0.617365015288
    3          1.219948394100        -1.926825518667
    4          0.523660342500         2.315393204761
    5          0.213848087700        -1.255288798676
    6          0.080254256700         0.386298644375
 end
  // -----------------------------------------------
  // The basis set
  // -----------------------------------------------
  BAS[ATNO] = new BFNGauss[NSH];
  // Basis function   1 L = s
  InitBFNGauss(BAS[ATNO][  0]);
  BAS[ATNO][  0].l  = 0;
  BAS[ATNO][  0].ng = 10;
  BAS[ATNO][  0].a[  0] =        24.473650944000;     BAS[ATNO][  0].d[  0] =         0.204765485519;
  BAS[ATNO][  0].a[  1] =        18.721372549000;     BAS[ATNO][  0].d[  1] =        -0.742563533883;
  BAS[ATNO][  0].a[  2] =        11.500000000000;     BAS[ATNO][  0].d[  2] =         3.396663808109;
  BAS[ATNO][  0].a[  3] =        10.350000000000;     BAS[ATNO][  0].d[  3] =        -2.813861986831;
  BAS[ATNO][  0].a[  4] =         3.812541461500;     BAS[ATNO][  0].d[  4] =        -0.615567816203;
  BAS[ATNO][  0].a[  5] =         1.050743063000;     BAS[ATNO][  0].d[  5] =         0.777642792469;
  BAS[ATNO][  0].a[  6] =         0.497322757500;     BAS[ATNO][  0].d[  6] =         0.545762504916;
  BAS[ATNO][  0].a[  7] =         0.156026509700;     BAS[ATNO][  0].d[  7] =         0.036665442046;
  BAS[ATNO][  0].a[  8] =         0.075056442400;     BAS[ATNO][  0].d[  8] =        -0.008867196837;
  BAS[ATNO][  0].a[  9] =         0.031632668800;     BAS[ATNO][  0].d[  9] =         0.001786427095;

FINAL SINGLE POINT ENERGY       -56.271044062807

DIPOLE MOMENT
-------------
                                X             Y             Z
Electronic contribution:     -0.00000      -0.00000      -0.00000
Nuclear contribution   :      0.00000       0.00000       0.00000
                        -----------------------------------------
Total Dipole Moment    :     -0.00000      -0.00000      -0.00000
                        -----------------------------------------
Magnitude (a.u.)       :      0.00000
Magnitude (Debye)      :      0.00000

Rotational constants in cm-1:     0.000000     0.000000     0.000000
Rotational constants in MHz :     0.000000     0.000000     0.000000

                             ****ORCA TERMINATED NORMALLY****
TOTAL RUN TIME: 0 days 0 hours 0 minutes 1 seconds 388 msec
