                         Program Version 4.2.0 -  RELEASE  -
|  1> #
|  2> # 74_W CCSD(T)/Def2-QZVP
|  3> #
|  4> ! CCSD(T) Def2-QZVP tightscf veryslowconv kdiis
|  5>
|  6> *xyz 0 5
|  7>  W 0.0 0.0 0.0
|  8> *
|  9>
| 10> %maxcore 5000
| 11>
| 12> %pal
| 13> nprocs 24
| 14> end
| 15>
| 16> %method
| 17> NewNCore W 60 end
| 18> end
| 19>
| 20>
| 21>                          ****END OF INPUT****

CARTESIAN COORDINATES (ANGSTROEM)
---------------------------------
  W      0.000000    0.000000    0.000000

 Total Charge           Charge          ....    0
 Multiplicity           Mult            ....    5
 Number of Electrons    NEL             ....   14
 Basis Dimension        Dim             ....   72

ORBITAL ENERGIES
----------------
                 SPIN UP ORBITALS
  NO   OCC          E(Eh)            E(eV)
   0   1.0000      -3.489259       -94.9476
   1   1.0000      -2.026609       -55.1468
   2   1.0000      -1.997417       -54.3525
   3   1.0000      -1.997403       -54.3521
   4   1.0000      -0.403306       -10.9745
   5   1.0000      -0.374999       -10.2042
   6   1.0000      -0.374988       -10.2040
   7   1.0000      -0.366084        -9.9616
   8   1.0000      -0.304458        -8.2847
   9   0.0000       0.035129         0.9559
  10   0.0000       0.036269         0.9869
  11   0.0000       0.036271         0.9870
  12   0.0000       0.047188         1.2841
  13   0.0000       0.105132         2.8608

                 SPIN DOWN ORBITALS
  NO   OCC          E(Eh)            E(eV)
   0   1.0000      -3.334184       -90.7278
   1   1.0000      -1.790032       -48.7093
   2   1.0000      -1.790013       -48.7087
   3   1.0000      -1.746258       -47.5181
   4   1.0000      -0.222793        -6.0625
   5   0.0000       0.045860         1.2479
   6   0.0000       0.045866         1.2481
   7   0.0000       0.055818         1.5189
   8   0.0000       0.105563         2.8725
   9   0.0000       0.118532         3.2254

E(0)                                       ...    -66.319640637
E(0)                                       ...    -66.319640637
E(CORR)                                    ...     -0.363182002
E(TOT)                                     ...    -66.682822639
E(CCSD(T))                                 ...    -66.697582331

MULLIKEN ATOMIC CHARGES AND SPIN DENSITIES
------------------------------------------
   0 W :   -0.000000    4.000000
Sum of atomic charges       :   -0.0000000

LOEWDIN ATOMIC CHARGES AND SPIN DENSITIES
-----------------------------------------
   0 W :   -0.000000    4.000000

FINAL SINGLE POINT ENERGY       -66.697582330758

DIPOLE MOMENT
-------------
                                X             Y             Z
Electronic contribution:      0.00000       0.00000      -0.00000
Nuclear contribution   :      0.00000       0.00000       0.00000
                        -----------------------------------------
Total Dipole Moment    :      0.00000       0.00000      -0.00000
                        -----------------------------------------
Magnitude (a.u.)       :      0.00000
Magnitude (Debye)      :      0.00000

Rotational constants in cm-1:     0.000000     0.000000     0.000000
Rotational constants in MHz :     0.000000     0.000000     0.000000

                             ****ORCA TERMINATED NORMALLY****
TOTAL RUN TIME: 0 days 0 hours 0 minutes 17 seconds 727 msec
