                         Program Version 4.2.0 -  RELEASE  -
|  1> # input to generate an atomic fitting density for W
|  2> # this file is use internally by ORCA
|  3> #
|  4> # atomic ground state (S=5): 1s2 2s2 2p6 3s2 3p6 4s2 3d10 4p6 5s2 4d10 5p6 6s2 4f14 5d4
|  5> #
|  6> ! RHF AllowRHF def2-SVP def2/J  NoMulliken NoLoewdin NoMayer NoPrintMOs
|  7>
|  8> %output print[p_atomdensfit] 2 end
|  9>
| 10> %scf
| 11>   guess hcore
| 12>   maxiter 1000
| 13>   maxdisk 500000
| 14>   SCFMode Conventional
| 15>   lshift 0.500000
| 16>   hftyp rohf
| 17>   rohf_case sahf
| 18>   rohf_numop   2
| 19>   rohf_norb[1] 5
| 20>   rohf_nel[1]  4
| 21> end
| 22>
| 23> %basis
| 24>   NewECP 74
| 25>     N_core 60
| 26>     lmax f
| 27>     s 3
| 28>       1      14.3228564000   1192.3958823000  2
| 29>       2       7.1614281000     32.5229332000  2
| 30>       3       2.2588885000    -14.1525795000  2
| 31>     p 3
| 32>       1      10.0216411000    359.0319671000  2
| 33>       2       5.0108204000     24.0303802000  2
| 34>       3       2.2588885000    -14.1525795000  2
| 35>     d 3
| 36>       1       6.5979974000    108.3013490000  2
| 37>       2       3.2989987000     10.9825283000  2
| 38>       3       2.2588885000    -14.1525795000  2
| 39>     f 1
| 40>       1       2.2588885000     14.1525795000  2
| 41>   end
| 42>   NewGTO 74
| 43>     s 4
| 44>      1      22.1064878830      6.4354751734
| 45>      2      18.9580626200    -15.1145078412
| 46>      3      13.1286990490     20.7816966137
| 47>      4      10.1494173780    -11.4729180780
| 48>     s 1
| 49>      1       4.0160322414      1.0000000000
| 50>     s 1
| 51>      1       1.1234496158      1.0000000000
| 52>     s 1
| 53>      1       0.5350066282      1.0000000000
| 54>     s 1
| 55>      1       0.1712744966      1.0000000000
| 56>     s 1
| 57>      1       0.0804528979      1.0000000000
| 58>     s 1
| 59>      1       0.0336698722      1.0000000000
| 60>     p 4
| 61>      1      17.0000000000     -0.0915365247
| 62>      2      12.4319734320      0.2639678450
| 63>      3       5.1586217658     -0.7116151539
| 64>      4       1.2801454812      1.2480085239
| 65>     p 1
| 66>      1       0.6285679090      1.0000000000
| 67>     p 1
| 68>      1       0.2938042355      1.0000000000
| 69>     p 1
| 70>      1       0.1000000000      1.0000000000
| 71>     p 1
| 72>      1       0.0417000000      1.0000000000
| 73>     d 3
| 74>      1       7.4064737315      0.1691665879
| 75>      2       5.9026268603     -0.3435591801
| 76>      3       1.2984756750      1.0723513542
| 77>     d 1
| 78>      1       0.5715350854      1.0000000000
| 79>     d 1
| 80>      1       0.2384552661      1.0000000000
| 81>     d 1
| 82>      1       0.0911442673      1.0000000000
| 83>   end
| 84>   NewAuxGTO 74
| 85>     S 1
| 86>      1 1310.72 1.0
| 87>     S 1
| 88>      1  655.36 1.0
| 89>     S 1
| 90>      1  327.68 1.0
| 91>     S 1
| 92>      1  163.84 1.0
| 93>     S 1
| 94>      1   81.82 1.0
| 95>     S 1
| 96>      1   40.96 1.0
| 97>     S 1
| 98>      1   20.48 1.0
| 99>     S 1
|100>      1   10.24 1.0
|101>     S 1
|102>      1    5.12 1.0
|103>     S 1
|104>      1    2.56 1.0
|105>     S 1
|106>      1    1.28 1.0
|107>     S 1
|108>      1    0.64 1.0
|109>     S 1
|110>      1    0.32 1.0
|111>     S 1
|112>      1    0.16 1.0
|113>     S 1
|114>      1    0.08 1.0
|115>     S 1
|116>      1    0.04 1.0
|117>     S 1
|118>      1    0.02 1.0
|119>     S 1
|120>      1    0.01 1.0
|121>   end
|122> end
|123>
|124> * xyz 0 5
|125> 74  0.0 0.0 0.0
|126> *
|127>
|128>
|129>                          ****END OF INPUT****

CARTESIAN COORDINATES (ANGSTROEM)
---------------------------------
  W      0.000000    0.000000    0.000000

 Total Charge           Charge          ....    0
 Multiplicity           Mult            ....    5
 Number of Electrons    NEL             ....   14
 Basis Dimension        Dim             ....   42

ORBITAL ENERGIES
----------------

  NO   OCC          E(Eh)            E(eV)
   0   2.0000      -3.421099       -93.0928
   1   2.0000      -1.906387       -51.8754
   2   2.0000      -1.904973       -51.8369
   3   2.0000      -1.903652       -51.8010
   4   2.0000      -0.320896        -8.7320
   5   0.8000      -0.373207       -10.1555
   6   0.8000      -0.359700        -9.7879
   7   0.8000      -0.357313        -9.7230
   8   0.8000      -0.330883        -9.0038
   9   0.8000      -0.173335        -4.7167
  10   0.0000      -0.021049        -0.5728
  11   0.0000      -0.019822        -0.5394
  12   0.0000      -0.033564        -0.9133
  13   0.0000       0.059769         1.6264
  14   0.0000       0.168289         4.5794

CleanUpVectors: The p-vectors have cracked symmetry
CleanUpVectors: The p-vectors have cracked symmetry
CleanUpVectors: The p-vectors have cracked symmetry
CleanUpVectors: The d-vectors have cracked symmetry at i=4
CleanUpVectors: The d-vectors have cracked symmetry at i=6
CleanUpVectors: The d-vectors have cracked symmetry at i=7
CleanUpVectors: The d-vectors have cracked symmetry at i=8
CleanUpVectors: The p-vectors have cracked symmetry
CleanUpVectors: The p-vectors have cracked symmetry
CleanUpVectors: The p-vectors have cracked symmetry
CleanUpVectors: The d-vectors have cracked symmetry at i=12
CleanUpVectors: The p-vectors have cracked symmetry
CleanUpVectors: The p-vectors have cracked symmetry
CleanUpVectors: The p-vectors have cracked symmetry
CleanUpVectors: The d-vectors have cracked symmetry at i=17
CleanUpVectors: The d-vectors have cracked symmetry at i=18
CleanUpVectors: The d-vectors have cracked symmetry at i=19
CleanUpVectors: The d-vectors have cracked symmetry at i=20
CleanUpVectors: The d-vectors have cracked symmetry at i=21
CleanUpVectors: The p-vectors have cracked symmetry
CleanUpVectors: The p-vectors have cracked symmetry
CleanUpVectors: The p-vectors have cracked symmetry
CleanUpVectors: The d-vectors have cracked symmetry at i=26
CleanUpVectors: The d-vectors have cracked symmetry at i=27
CleanUpVectors: The d-vectors have cracked symmetry at i=28
CleanUpVectors: The d-vectors have cracked symmetry at i=29
CleanUpVectors: The d-vectors have cracked symmetry at i=30
CleanUpVectors: The d-vectors have cracked symmetry at i=32
CleanUpVectors: The d-vectors have cracked symmetry at i=33
CleanUpVectors: The d-vectors have cracked symmetry at i=34
CleanUpVectors: The d-vectors have cracked symmetry at i=35
CleanUpVectors: The d-vectors have cracked symmetry at i=36
CleanUpVectors: The p-vectors have cracked symmetry
CleanUpVectors: The p-vectors have cracked symmetry
CleanUpVectors: The p-vectors have cracked symmetry
--------------------------
ATOM BASIS FOR ELEMENT W
--------------------------
 NewGTO W
 S 10
    1         22.106487883000         0.646555302997
    2         18.958062620000        -1.518514940016
    3         13.128699049000         2.087882524416
    4         10.149417378000        -1.152653972598
    5          4.016032241400        -0.653572330774
    6          1.123449615800         0.792952187735
    7          0.535006628200         0.545719359693
    8          0.171274496600         0.037666680301
    9          0.080452897900        -0.009116257130
   10          0.033669872200         0.001609866088
 P 24
    1         17.000000000000        -0.011601551577
    2         12.431973432000         0.033455897289
    3          5.158621765800        -0.090191756113
    4          1.280145481200         0.158175496682
    5         17.000000000000        -0.033489143565
    6         12.431973432000         0.096574095277
    7          5.158621765800        -0.260348337780
    8          1.280145481200         0.456590817315
    9         17.000000000000        -0.007308835479
   10         12.431973432000         0.021076805759
   11          5.158621765800        -0.056819702315
   12          1.280145481200         0.099648626685
   13          0.628567909000         0.159684569313
   14          0.628567909000         0.460946920000
   15          0.628567909000         0.100599323970
   16          0.293804235500         0.053584454081
   17          0.293804235500         0.154677369110
   18          0.293804235500         0.033757550145
   19          0.100000000000         0.002584904554
   20          0.100000000000         0.007461608833
   21          0.100000000000         0.001628458227
   22          0.041700000000        -0.000020647934
   23          0.041700000000        -0.000059602513
   24          0.041700000000        -0.000013007946
 D 24
    1         22.106487883000        -0.000054810313
    2         18.958062620000         0.000150107181
    3         13.128699049000        -0.000298030506
    4         10.149417378000         0.000212830660
    5          4.016032241400         0.000331173068
    6          1.123449615800        -0.001770516830
    7          0.535006628200        -0.004494888266
    8          0.171274496600         0.006343427232
    9          0.080452897900         0.055616797206
   10          0.033669872200         0.052696862683
   11          7.406473731500         0.013985959589
   12          5.902626860300        -0.028403982542
   13          1.298475675000         0.088657357764
   14          7.406473731500        -0.014095701777
   15          5.902626860300         0.028626857145
   16          1.298475675000        -0.089353016319
   17          7.406473731500        -0.022657024354
   18          5.902626860300         0.046013984247
   19          1.298475675000        -0.143623460461
   20          7.406473731500        -0.024917010175
   21          5.902626860300         0.050603772841
   22          1.298475675000        -0.157949568741
   23          7.406473731500        -0.004297420602
   24          5.902626860300         0.008727599917
 S 10
    1         22.106487883000         1.034419589514
    2         18.958062620000        -2.429462094955
    3         13.128699049000         3.340389559640
    4         10.149417378000        -1.844123532296
    5          4.016032241400        -1.324728665645
    6          1.123449615800         5.588919231269
    7          0.535006628200        -6.815926366907
    8          0.171274496600         4.911610309512
    9          0.080452897900        -3.146810410265
   10          0.033669872200         0.842178416712
 S 10
    1         22.106487883000         5.168519083846
    2         18.958062620000       -12.138905071545
    3         13.128699049000        16.690390786772
    4         10.149417378000        -9.214237400627
    5          4.016032241400        -1.957024402424
    6          1.123449615800         2.362126366699
    7          0.535006628200        -1.908064800004
    8          0.171274496600         1.074518771809
    9          0.080452897900        -0.680185584361
   10          0.033669872200         0.186514295356
 S 10
    1         22.106487883000         5.771394957932
    2         18.958062620000       -13.554833480966
    3         13.128699049000        18.637221933406
    4         10.149417378000       -10.289021364238
    5          4.016032241400         0.169267884921
    6          1.123449615800         0.315585862095
    7          0.535006628200        -0.283522695349
    8          0.171274496600         0.168560739582
    9          0.080452897900        -0.108180668387
   10          0.033669872200         0.029890405851
 D 24
    1         22.106487883000        -0.000047312343
    2         18.958062620000         0.000129572741
    3         13.128699049000        -0.000257260375
    4         10.149417378000         0.000183715742
    5          4.016032241400         0.000247581668
    6          1.123449615800        -0.000000374024
    7          0.535006628200        -0.006773983748
    8          0.171274496600        -0.011085570308
    9          0.080452897900         0.063525655924
   10          0.033669872200         0.080013793603
   11          7.406473731500        -0.003122551730
   12          5.902626860300         0.006341567359
   13          1.298475675000        -0.019793935772
   14          7.406473731500         0.015435567873
   15          5.902626860300        -0.031347981353
   16          1.298475675000         0.097846461984
   17          7.406473731500        -0.028244405763
   18          5.902626860300         0.057361356085
   19          1.298475675000        -0.179042015000
   20          7.406473731500         0.012270091177
   21          5.902626860300        -0.024919237993
   22          1.298475675000         0.077780423740
   23          7.406473731500         0.017123006270
   24          5.902626860300        -0.034774987591
 D 24
    1          7.406473731500         0.011522936055
    2          5.902626860300        -0.023401846148
    3          1.298475675000         0.073044188195
    4          7.406473731500         0.018293108087
    5          5.902626860300        -0.037151338771
    6          1.298475675000         0.115960482936
    7          7.406473731500        -0.002195524468
    8          5.902626860300         0.004458874506
    9          1.298475675000        -0.013917486104
   10          7.406473731500         0.001394300639
   11          5.902626860300        -0.002831674921
   12          1.298475675000         0.008838507633
   13          7.406473731500        -0.019009689207
   14          5.902626860300         0.038606638101
   15          1.298475675000        -0.120502909097
   16          0.571535085400         0.137115746920
   17          0.571535085400         0.217676568443
   18          0.571535085400        -0.026125370814
   19          0.571535085400         0.016591307341
   20          0.571535085400        -0.226203436512
   21          0.238455266100         0.110929206044
   22          0.238455266100         0.176104418742
   23          0.238455266100        -0.021135914052
   24          0.238455266100         0.013422678226
 D 24
    1          7.406473731500        -0.008730679969
    2          5.902626860300         0.017731073784
    3          1.298475675000        -0.055344005007
    4          7.406473731500        -0.011565352857
    5          5.902626860300         0.023487990119
    6          1.298475675000        -0.073313069395
    7          7.406473731500        -0.008851933833
    8          5.902626860300         0.017977327366
    9          1.298475675000        -0.056112636374
   10          7.406473731500         0.012192759587
   11          5.902626860300        -0.024762185837
   12          1.298475675000         0.077290216804
   13          7.406473731500        -0.014504935039
   14          5.902626860300         0.029457965970
   15          1.298475675000        -0.091947156499
   16          0.571535085400        -0.016912034600
   17          0.571535085400        -0.022403025695
   18          0.571535085400        -0.017146913161
   19          0.571535085400         0.023618363374
   20          0.571535085400        -0.028097234595
   21          0.238455266100        -0.226195520073
   22          0.238455266100        -0.299636570534
   23          0.238455266100        -0.229336979963
   24          0.238455266100         0.315891500523
 P 24
    1         17.000000000000        -0.019712664630
    2         12.431973432000         0.056846265670
    3          5.158621765800        -0.153248453777
    4          1.280145481200         0.268762371825
    5         17.000000000000         0.002698883973
    6         12.431973432000        -0.007782888727
    7          5.158621765800         0.020981425064
    8          1.280145481200        -0.036796570702
    9         17.000000000000         0.018924243541
   10         12.431973432000        -0.054572661592
   11          5.158621765800         0.147119180283
   12          1.280145481200        -0.258013042606
   13          0.628567909000         1.058730410998
   14          0.628567909000        -0.144952018983
   15          0.628567909000        -1.016385786395
   16          0.293804235500        -2.115142436188
   17          0.293804235500         0.289586625054
   18          0.293804235500         2.030545912358
   19          0.100000000000         1.447357674941
   20          0.100000000000        -0.198159432274
   21          0.100000000000        -1.389469645299
   22          0.041700000000        -0.564005055108
   23          0.041700000000         0.077218591820
   24          0.041700000000         0.541447299060
 D 24
    1          7.406473731500        -0.005968850709
    2          5.902626860300         0.012122095037
    3          1.298475675000        -0.037836698252
    4          7.406473731500        -0.007906814228
    5          5.902626860300         0.016057890906
    6          1.298475675000        -0.050121498874
    7          7.406473731500        -0.006051747599
    8          5.902626860300         0.012290449722
    9          1.298475675000        -0.038362183771
   10          7.406473731500         0.008335749560
   11          5.902626860300        -0.016929012518
   12          1.298475675000         0.052840530980
   13          7.406473731500        -0.009916500445
   14          5.902626860300         0.020139347873
   15          1.298475675000        -0.062860951519
   16          0.571535085400        -0.442160993582
   17          0.571535085400        -0.585721608012
   18          0.571535085400        -0.448301835941
   19          0.571535085400         0.617496313339
   20          0.571535085400        -0.734595302064
   21          0.238455266100         0.664715766525
   22          0.238455266100         0.880535355429
   23          0.238455266100         0.673947505181
   24          0.238455266100        -0.928303358293
 D 24
    1          7.406473731500        -0.109789747883
    2          5.902626860300         0.222971192090
    3          1.298475675000        -0.695960037266
    4          7.406473731500        -0.145436229335
    5          5.902626860300         0.295365369293
    6          1.298475675000        -0.921924000556
    7          7.406473731500        -0.111314535352
    8          5.902626860300         0.226067871755
    9          1.298475675000        -0.705625704274
   10          7.406473731500         0.153325973013
   11          5.902626860300        -0.311388591745
   12          1.298475675000         0.971937288774
   13          7.406473731500        -0.182401962575
   14          5.902626860300         0.370438805257
   15          1.298475675000        -1.156250734880
   16          0.571535085400         0.851773951433
   17          0.571535085400         1.128327499893
   18          0.571535085400         0.863603601038
   19          0.571535085400        -1.189537934183
   20          0.571535085400         1.415116105178
   21          0.238455266100        -0.467637945879
   22          0.238455266100        -0.619470404608
   23          0.238455266100        -0.474132618594
   24          0.238455266100         0.653075942450
 P 24
    1         17.000000000000        -0.076997918213
    2         12.431973432000         0.222042235127
    3          5.158621765800        -0.598590405291
    4          1.280145481200         1.049789235141
    5         17.000000000000        -0.222262881205
    6         12.431973432000         0.640949107119
    7          5.158621765800        -1.727896431872
    8          1.280145481200         3.030331020319
    9         17.000000000000        -0.048507746767
   10         12.431973432000         0.139883892489
   11          5.158621765800        -0.377104634399
   12          1.280145481200         0.661354378912
   13          0.628567909000        -1.366029533727
   14          0.628567909000        -3.943193102148
   15          0.628567909000        -0.860581899311
   16          0.293804235500         0.829766141974
   17          0.293804235500         2.395210386480
   18          0.293804235500         0.522742521164
   19          0.100000000000        -0.334166924220
   20          0.100000000000        -0.964609240149
   21          0.100000000000        -0.210521075301
   22          0.041700000000         0.122939932817
   23          0.041700000000         0.354879512554
   24          0.041700000000         0.077450654084
 end
  // -----------------------------------------------
  // The basis set
  // -----------------------------------------------
  BAS[ATNO] = new BFNGauss[NSH];
  // Basis function   1 L = s
  InitBFNGauss(BAS[ATNO][  0]);
  BAS[ATNO][  0].l  = 0;
  BAS[ATNO][  0].ng = 10;
  BAS[ATNO][  0].a[  0] =        22.106487883000;     BAS[ATNO][  0].d[  0] =         0.646555302997;
  BAS[ATNO][  0].a[  1] =        18.958062620000;     BAS[ATNO][  0].d[  1] =        -1.518514940016;
  BAS[ATNO][  0].a[  2] =        13.128699049000;     BAS[ATNO][  0].d[  2] =         2.087882524416;
  BAS[ATNO][  0].a[  3] =        10.149417378000;     BAS[ATNO][  0].d[  3] =        -1.152653972598;
  BAS[ATNO][  0].a[  4] =         4.016032241400;     BAS[ATNO][  0].d[  4] =        -0.653572330774;
  BAS[ATNO][  0].a[  5] =         1.123449615800;     BAS[ATNO][  0].d[  5] =         0.792952187735;
  BAS[ATNO][  0].a[  6] =         0.535006628200;     BAS[ATNO][  0].d[  6] =         0.545719359693;
  BAS[ATNO][  0].a[  7] =         0.171274496600;     BAS[ATNO][  0].d[  7] =         0.037666680301;
  BAS[ATNO][  0].a[  8] =         0.080452897900;     BAS[ATNO][  0].d[  8] =        -0.009116257130;
  BAS[ATNO][  0].a[  9] =         0.033669872200;     BAS[ATNO][  0].d[  9] =         0.001609866088;

FINAL SINGLE POINT ENERGY       -66.164426342635

DIPOLE MOMENT
-------------
                                X             Y             Z
Electronic contribution:      0.00000      -0.00000      -0.00000
Nuclear contribution   :      0.00000       0.00000       0.00000
                        -----------------------------------------
Total Dipole Moment    :      0.00000      -0.00000      -0.00000
                        -----------------------------------------
Magnitude (a.u.)       :      0.00000
Magnitude (Debye)      :      0.00000

Rotational constants in cm-1:     0.000000     0.000000     0.000000
Rotational constants in MHz :     0.000000     0.000000     0.000000

                             ****ORCA TERMINATED NORMALLY****
TOTAL RUN TIME: 0 days 0 hours 0 minutes 4 seconds 471 msec
