                         Program Version 4.2.0 -  RELEASE  -
|  1> # input to generate an atomic fitting density for Re
|  2> # this file is use internally by ORCA
|  3> #
|  4> # atomic ground state (S=6): 1s2 2s2 2p6 3s2 3p6 4s2 3d10 4p6 5s2 4d10 5p6 6s2 4f14 5d5
|  5> #
|  6> ! RHF AllowRHF def2-SVP def2/J  NoMulliken NoLoewdin NoMayer NoPrintMOs
|  7>
|  8> %output print[p_atomdensfit] 2 end
|  9>
| 10> %scf
| 11>   guess hcore
| 12>   maxiter 1000
| 13>   maxdisk 500000
| 14>   SCFMode Conventional
| 15>   lshift 0.500000
| 16>   hftyp rohf
| 17>   rohf_case sahf
| 18>   rohf_numop   2
| 19>   rohf_norb[1] 5
| 20>   rohf_nel[1]  5
| 21> end
| 22>
| 23> %basis
| 24>   NewECP 75
| 25>     N_core 60
| 26>     lmax f
| 27>     s 3
| 28>       1      14.0993051000   1038.9515723000  2
| 29>       2       7.0496525000     29.5617383000  2
| 30>       3       2.5086506000    -16.4498523000  2
| 31>     p 3
| 32>       1      10.1077169000    339.5435096000  2
| 33>       2       5.0538583000     24.9136965000  2
| 34>       3       2.5086506000    -16.4498523000  2
| 35>     d 3
| 36>       1       6.8486179000    111.6996527000  2
| 37>       2       3.4243090000     12.6243293000  2
| 38>       3       2.5086506000    -16.4498523000  2
| 39>     f 1
| 40>       1       2.5086506000     16.4498523000  2
| 41>   end
| 42>   NewGTO 75
| 43>     s 4
| 44>      1      24.0000000000      2.6150378908
| 45>      2      18.2042627490    -13.1482597401
| 46>      3      14.0481924870     18.4275193491
| 47>      4       9.5166786954     -7.3333962699
| 48>     s 1
| 49>      1       4.1714667981      1.0000000000
| 50>     s 1
| 51>      1       1.1944213976      1.0000000000
| 52>     s 1
| 53>      1       0.5675544780      1.0000000000
| 54>     s 1
| 55>      1       0.1753385487      1.0000000000
| 56>     s 1
| 57>      1       0.0820142505      1.0000000000
| 58>     s 1
| 59>      1       0.0346078927      1.0000000000
| 60>     p 4
| 61>      1      18.0000000000     -0.0654422411
| 62>      2      12.3186062500      0.2426593672
| 63>      3       5.3719234505     -0.7127910952
| 64>      4       1.3506646748      1.2524914706
| 65>     p 1
| 66>      1       0.6621281681      1.0000000000
| 67>     p 1
| 68>      1       0.3107138519      1.0000000000
| 69>     p 1
| 70>      1       0.1080000000      1.0000000000
| 71>     p 1
| 72>      1       0.0450000000      1.0000000000
| 73>     d 3
| 74>      1       7.7352877672      0.1637238665
| 75>      2       6.0949443610     -0.3458277141
| 76>      3       1.3871105497      1.0779055520
| 77>     d 1
| 78>      1       0.6232402785      1.0000000000
| 79>     d 1
| 80>      1       0.2651732855      1.0000000000
| 81>     d 1
| 82>      1       0.1032109685      1.0000000000
| 83>   end
| 84>   NewAuxGTO 75
| 85>     S 1
| 86>      1 1310.72 1.0
| 87>     S 1
| 88>      1  655.36 1.0
| 89>     S 1
| 90>      1  327.68 1.0
| 91>     S 1
| 92>      1  163.84 1.0
| 93>     S 1
| 94>      1   81.82 1.0
| 95>     S 1
| 96>      1   40.96 1.0
| 97>     S 1
| 98>      1   20.48 1.0
| 99>     S 1
|100>      1   10.24 1.0
|101>     S 1
|102>      1    5.12 1.0
|103>     S 1
|104>      1    2.56 1.0
|105>     S 1
|106>      1    1.28 1.0
|107>     S 1
|108>      1    0.64 1.0
|109>     S 1
|110>      1    0.32 1.0
|111>     S 1
|112>      1    0.16 1.0
|113>     S 1
|114>      1    0.08 1.0
|115>     S 1
|116>      1    0.04 1.0
|117>     S 1
|118>      1    0.02 1.0
|119>     S 1
|120>      1    0.01 1.0
|121>   end
|122> end
|123>
|124> * xyz 0 6
|125> 75  0.0 0.0 0.0
|126> *
|127>
|128>
|129>                          ****END OF INPUT****

CARTESIAN COORDINATES (ANGSTROEM)
---------------------------------
  Re     0.000000    0.000000    0.000000

 Total Charge           Charge          ....    0
 Multiplicity           Mult            ....    6
 Number of Electrons    NEL             ....   15
 Basis Dimension        Dim             ....   42

ORBITAL ENERGIES
----------------

  NO   OCC          E(Eh)            E(eV)
   0   2.0000      -3.582312       -97.4797
   1   2.0000      -1.992176       -54.2099
   2   2.0000      -1.983679       -53.9787
   3   2.0000      -1.980639       -53.8959
   4   2.0000      -0.258277        -7.0281
   5   1.0000      -0.366492        -9.9728
   6   1.0000      -0.359733        -9.7888
   7   1.0000      -0.354586        -9.6488
   8   1.0000      -0.339280        -9.2323
   9   1.0000      -0.286914        -7.8073
  10   0.0000       0.039246         1.0679
  11   0.0000       0.046015         1.2521
  12   0.0000       0.048315         1.3147
  13   0.0000       0.113149         3.0789
  14   0.0000       0.262742         7.1496

CleanUpVectors: The p-vectors have cracked symmetry
CleanUpVectors: The p-vectors have cracked symmetry
CleanUpVectors: The p-vectors have cracked symmetry
CleanUpVectors: The d-vectors have cracked symmetry at i=4
CleanUpVectors: The d-vectors have cracked symmetry at i=6
CleanUpVectors: The d-vectors have cracked symmetry at i=7
CleanUpVectors: The d-vectors have cracked symmetry at i=8
CleanUpVectors: The d-vectors have cracked symmetry at i=9
CleanUpVectors: The p-vectors have cracked symmetry
CleanUpVectors: The p-vectors have cracked symmetry
CleanUpVectors: The p-vectors have cracked symmetry
CleanUpVectors: The p-vectors have cracked symmetry
CleanUpVectors: The p-vectors have cracked symmetry
CleanUpVectors: The p-vectors have cracked symmetry
CleanUpVectors: The d-vectors have cracked symmetry at i=17
CleanUpVectors: The d-vectors have cracked symmetry at i=18
CleanUpVectors: The d-vectors have cracked symmetry at i=19
CleanUpVectors: The d-vectors have cracked symmetry at i=20
CleanUpVectors: The d-vectors have cracked symmetry at i=21
CleanUpVectors: The p-vectors have cracked symmetry
CleanUpVectors: The p-vectors have cracked symmetry
CleanUpVectors: The p-vectors have cracked symmetry
CleanUpVectors: The d-vectors have cracked symmetry at i=26
CleanUpVectors: The d-vectors have cracked symmetry at i=27
CleanUpVectors: The d-vectors have cracked symmetry at i=28
CleanUpVectors: The d-vectors have cracked symmetry at i=29
CleanUpVectors: The d-vectors have cracked symmetry at i=30
CleanUpVectors: The d-vectors have cracked symmetry at i=32
CleanUpVectors: The d-vectors have cracked symmetry at i=33
CleanUpVectors: The d-vectors have cracked symmetry at i=34
CleanUpVectors: The d-vectors have cracked symmetry at i=35
CleanUpVectors: The d-vectors have cracked symmetry at i=36
CleanUpVectors: The p-vectors have cracked symmetry
CleanUpVectors: The p-vectors have cracked symmetry
CleanUpVectors: The p-vectors have cracked symmetry
--------------------------
ATOM BASIS FOR ELEMENT Re
--------------------------
 NewGTO Re
 S 10
    1         24.000000000000         0.262730920757
    2         18.204262749000        -1.320995921330
    3         14.048192487000         1.851399225568
    4          9.516678695400        -0.736780893709
    5          4.171466798100        -0.664668054103
    6          1.194421397600         0.815242325103
    7          0.567554478000         0.540574233025
    8          0.175338548700         0.040006501349
    9          0.082014250500        -0.014343679144
   10          0.034607892700         0.001147008506
 P 24
    1         18.000000000000         0.004448780684
    2         12.318606250000        -0.016496047315
    3          5.371923450500         0.048455725274
    4          1.350664674800        -0.085144698097
    5         18.000000000000        -0.008630265282
    6         12.318606250000         0.032000962634
    7          5.371923450500        -0.094000085249
    8          1.350664674800         0.165173647374
    9         18.000000000000         0.024967393483
   10         12.318606250000        -0.092578918468
   11          5.371923450500         0.271942638969
   12          1.350664674800        -0.477848051267
   13          0.662128168100        -0.081073316280
   14          0.662128168100         0.157275504570
   15          0.662128168100        -0.454998691169
   16          0.310713851900        -0.026896339738
   17          0.310713851900         0.052176666719
   18          0.310713851900        -0.150947314598
   19          0.108000000000        -0.001409774993
   20          0.108000000000         0.002734846477
   21          0.108000000000        -0.007911922272
   22          0.045000000000         0.000007151140
   23          0.045000000000        -0.000013872617
   24          0.045000000000         0.000040133539
 D 24
    1         24.000000000000         0.000020786872
    2         18.204262749000        -0.000137789959
    3         14.048192487000         0.000250246965
    4          9.516678695400        -0.000147008396
    5          4.171466798100        -0.000330986102
    6          1.194421397600         0.001987946508
    7          0.567554478000         0.002810837331
    8          0.175338548700        -0.014132184609
    9          0.082014250500        -0.029886426742
   10          0.034607892700         0.031444938764
   11          7.735287767200         0.020346049789
   12          6.094944361000        -0.042976189361
   13          1.387110549700         0.133951881897
   14          7.735287767200        -0.026715645728
   15          6.094944361000         0.056430445299
   16          1.387110549700        -0.175887263541
   17          7.735287767200        -0.014478821009
   18          6.094944361000         0.030583064519
   19          1.387110549700        -0.095323924885
   20          7.735287767200        -0.008343119048
   21          6.094944361000         0.017622853958
   22          1.387110549700        -0.054928426348
   23          7.735287767200        -0.000131434487
   24          6.094944361000         0.000277624081
 S 10
    1         24.000000000000         0.419646205523
    2         18.204262749000        -2.109956925893
    3         14.048192487000         2.957142074025
    4          9.516678695400        -1.176821157769
    5          4.171466798100        -1.348763312114
    6          1.194421397600         5.557094705012
    7          0.567554478000        -6.589938291169
    8          0.175338548700         4.653747117712
    9          0.082014250500        -3.038303175955
   10          0.034607892700         0.831518556045
 S 10
    1         24.000000000000         2.078972339201
    2         18.204262749000       -10.452953054510
    3         14.048192487000        14.649999199495
    4          9.516678695400        -5.830098313741
    5          4.171466798100        -1.928311192286
    6          1.194421397600         2.394805574843
    7          0.567554478000        -1.873471679584
    8          0.175338548700         1.028663634859
    9          0.082014250500        -0.666323559841
   10          0.034607892700         0.186855051984
 S 10
    1         24.000000000000         2.288657232765
    2         18.204262749000       -11.507236609580
    3         14.048192487000        16.127596310787
    4          9.516678695400        -6.418121310167
    5          4.171466798100         0.240175968053
    6          1.194421397600         0.321507838142
    7          0.567554478000        -0.282240828492
    8          0.175338548700         0.164286901311
    9          0.082014250500        -0.107941358001
   10          0.034607892700         0.030504629757
 D 24
    1          7.735287767200        -0.005035923447
    2          6.094944361000         0.010637190113
    3          1.387110549700        -0.033154908681
    4          7.735287767200         0.000116907092
    5          6.094944361000        -0.000246938417
    6          1.387110549700         0.000769678889
    7          7.735287767200        -0.017708544315
    8          6.094944361000         0.037405086572
    9          1.387110549700        -0.116587389748
   10          7.735287767200         0.018522327491
   11          6.094944361000        -0.039124009914
   12          1.387110549700         0.121945077805
   13          7.735287767200        -0.028299554933
   14          6.094944361000         0.059776076645
   15          1.387110549700        -0.186315214963
   16          0.623240278500        -0.054704889738
   17          0.623240278500         0.001269953695
   18          0.623240278500        -0.192366697867
   19          0.623240278500         0.201206768496
   20          0.623240278500        -0.307416117150
   21          0.265173285500        -0.049313941045
   22          0.265173285500         0.001144804823
   23          0.265173285500        -0.173409727048
   24          0.265173285500         0.181378643975
 P 24
    1         18.000000000000         0.003511535572
    2         12.318606250000        -0.013020749066
    3          5.371923450500         0.038247334502
    4          1.350664674800        -0.067206872476
    5         18.000000000000        -0.001555450252
    6         12.318606250000         0.005767598535
    7          5.371923450500        -0.016941826412
    8          1.350664674800         0.029769582168
    9         18.000000000000        -0.001163357318
   10         12.318606250000         0.004313720710
   11          5.371923450500        -0.012671184898
   12          1.350664674800         0.022265360937
   13          0.662128168100        -0.131948842630
   14          0.662128168100         0.058447324923
   15          0.662128168100         0.043714109854
   16          0.310713851900         0.109571829371
   17          0.310713851900        -0.048535327677
   18          0.310713851900        -0.036300697229
   19          0.108000000000        -0.237575777035
   20          0.108000000000         0.105235243883
   21          0.108000000000         0.078707879577
   22          0.045000000000         1.031398101566
   23          0.045000000000        -0.456862362457
   24          0.045000000000        -0.341697956699
 P 24
    1         18.000000000000         0.006606727519
    2         12.318606250000        -0.024497698919
    3          5.371923450500         0.071959891117
    4          1.350664674800        -0.126445392564
    5         18.000000000000        -0.002926479250
    6         12.318606250000         0.010851364362
    7          5.371923450500        -0.031874952851
    8          1.350664674800         0.056009547314
    9         18.000000000000        -0.002188781704
   10         12.318606250000         0.008115987078
   11          5.371923450500        -0.023840016500
   12          1.350664674800         0.041890839442
   13          0.662128168100        -0.107791973883
   14          0.662128168100         0.047746932797
   15          0.662128168100         0.035711038414
   16          0.310713851900        -0.429342391121
   17          0.310713851900         0.190179115915
   18          0.310713851900         0.142239371537
   19          0.108000000000         1.868172777552
   20          0.108000000000        -0.827515415572
   21          0.108000000000        -0.618917971525
   22          0.045000000000        -1.220390483318
   23          0.045000000000         0.540577375978
   24          0.045000000000         0.404310356879
 D 24
    1          7.735287767200        -0.006508660038
    2          6.094944361000         0.013747995761
    3          1.387110549700        -0.042850935179
    4          7.735287767200         0.008954298578
    5          6.094944361000        -0.018913825302
    6          1.387110549700         0.058952236825
    7          7.735287767200        -0.019844412840
    8          6.094944361000         0.041916600656
    9          1.387110549700        -0.130649264724
   10          7.735287767200        -0.010215852733
   11          6.094944361000         0.021578558299
   12          1.387110549700        -0.067257905732
   13          7.735287767200         0.006926548117
   14          6.094944361000        -0.014630684904
   15          1.387110549700         0.045602176588
   16          0.623240278500        -0.002518526304
   17          0.623240278500         0.003464866251
   18          0.623240278500        -0.007678796472
   19          0.623240278500        -0.003953024691
   20          0.623240278500         0.002680228116
   21          0.265173285500        -0.180310658704
   22          0.265173285500         0.248062652768
   23          0.265173285500        -0.549753579080
   24          0.265173285500        -0.283011729732
 P 24
    1         18.000000000000         0.017590584779
    2         12.318606250000        -0.065225763961
    3          5.371923450500         0.191595091777
    4          1.350664674800        -0.336664164123
    5         18.000000000000        -0.007791827527
    6         12.318606250000         0.028892041367
    7          5.371923450500        -0.084867895462
    8          1.350664674800         0.149126884314
    9         18.000000000000        -0.005827688520
   10         12.318606250000         0.021609027819
   11          5.371923450500        -0.063474667322
   12          1.350664674800         0.111535455417
   13          0.662128168100        -1.302265523325
   14          0.662128168100         0.576844287982
   15          0.662128168100         0.431435221494
   16          0.310713851900         2.626963499545
   17          0.310713851900        -1.163625130442
   18          0.310713851900        -0.870302222536
   19          0.108000000000        -1.783223436682
   20          0.108000000000         0.789886728337
   21          0.108000000000         0.590774603641
   22          0.045000000000         0.678906444886
   23          0.045000000000        -0.300724620127
   24          0.045000000000        -0.224918917975
 D 24
    1          7.735287767200        -0.003666741589
    2          6.094944361000         0.007745119200
    3          1.387110549700        -0.024140653411
    4          7.735287767200         0.005044525111
    5          6.094944361000        -0.010655359081
    6          1.387110549700         0.033211539283
    7          7.735287767200        -0.011179618146
    8          6.094944361000         0.023614283430
    9          1.387110549700        -0.073603028844
   10          7.735287767200        -0.005755238692
   11          6.094944361000         0.012156572425
   12          1.387110549700        -0.037890650101
   13          7.735287767200         0.003902164486
   14          6.094944361000        -0.008242394056
   15          1.387110549700         0.025690602438
   16          0.623240278500        -0.338065832754
   17          0.623240278500         0.465094564494
   18          0.623240278500        -1.030737189072
   19          0.623240278500        -0.530620856108
   20          0.623240278500         0.359771326788
   21          0.265173285500         0.504218818972
   22          0.265173285500        -0.693679778607
   23          0.265173285500         1.537325094084
   24          0.265173285500         0.791411007760
 D 24
    1          7.735287767200        -0.081255689940
    2          6.094944361000         0.171633312297
    3          1.387110549700        -0.534961464018
    4          7.735287767200         0.111787634432
    5          6.094944361000        -0.236124780746
    6          1.387110549700         0.735974017562
    7          7.735287767200        -0.247742461177
    8          6.094944361000         0.523297005292
    9          1.387110549700        -1.631057096790
   10          7.735287767200        -0.127537182351
   11          6.094944361000         0.269391953525
   12          1.387110549700        -0.839664001841
   13          7.735287767200         0.086472706040
   14          6.094944361000        -0.182653017553
   15          1.387110549700         0.569308628785
   16          0.623240278500         0.662965184936
   17          0.623240278500        -0.912075324074
   18          0.623240278500         2.021330773423
   19          0.623240278500         1.040575887623
   20          0.623240278500        -0.705530819983
   21          0.265173285500        -0.366583425634
   22          0.265173285500         0.504327684670
   23          0.265173285500        -1.117685175780
   24          0.265173285500        -0.575381456198
 P 24
    1         18.000000000000         0.153104633063
    2         12.318606250000        -0.567710896661
    3          5.371923450500         1.667602106019
    4          1.350664674800        -2.930251834245
    5         18.000000000000        -0.067818376086
    6         12.318606250000         0.251470058925
    7          5.371923450500        -0.738671747063
    8          1.350664674800         1.297968042811
    9         18.000000000000        -0.050722936358
   10         12.318606250000         0.188080289309
   11          5.371923450500        -0.552469731332
   12          1.350664674800         0.970780402446
   13          0.662128168100         3.835402447629
   14          0.662128168100        -1.698908520477
   15          0.662128168100        -1.270653084537
   16          0.310713851900        -2.364869297435
   17          0.310713851900         1.047529341207
   18          0.310713851900         0.783471489196
   19          0.108000000000         0.961337182527
   20          0.108000000000        -0.425828567601
   21          0.108000000000        -0.318487061772
   22          0.045000000000        -0.347605381095
   23          0.045000000000         0.153973344850
   24          0.045000000000         0.115160235652
 end
  // -----------------------------------------------
  // The basis set
  // -----------------------------------------------
  BAS[ATNO] = new BFNGauss[NSH];
  // Basis function   1 L = s
  InitBFNGauss(BAS[ATNO][  0]);
  BAS[ATNO][  0].l  = 0;
  BAS[ATNO][  0].ng = 10;
  BAS[ATNO][  0].a[  0] =        24.000000000000;     BAS[ATNO][  0].d[  0] =         0.262730920757;
  BAS[ATNO][  0].a[  1] =        18.204262749000;     BAS[ATNO][  0].d[  1] =        -1.320995921330;
  BAS[ATNO][  0].a[  2] =        14.048192487000;     BAS[ATNO][  0].d[  2] =         1.851399225568;
  BAS[ATNO][  0].a[  3] =         9.516678695400;     BAS[ATNO][  0].d[  3] =        -0.736780893709;
  BAS[ATNO][  0].a[  4] =         4.171466798100;     BAS[ATNO][  0].d[  4] =        -0.664668054103;
  BAS[ATNO][  0].a[  5] =         1.194421397600;     BAS[ATNO][  0].d[  5] =         0.815242325103;
  BAS[ATNO][  0].a[  6] =         0.567554478000;     BAS[ATNO][  0].d[  6] =         0.540574233025;
  BAS[ATNO][  0].a[  7] =         0.175338548700;     BAS[ATNO][  0].d[  7] =         0.040006501349;
  BAS[ATNO][  0].a[  8] =         0.082014250500;     BAS[ATNO][  0].d[  8] =        -0.014343679144;
  BAS[ATNO][  0].a[  9] =         0.034607892700;     BAS[ATNO][  0].d[  9] =         0.001147008506;

FINAL SINGLE POINT ENERGY       -77.461396763240

DIPOLE MOMENT
-------------
                                X             Y             Z
Electronic contribution:     -0.00000       0.00000       0.00000
Nuclear contribution   :      0.00000       0.00000       0.00000
                        -----------------------------------------
Total Dipole Moment    :     -0.00000       0.00000       0.00000
                        -----------------------------------------
Magnitude (a.u.)       :      0.00000
Magnitude (Debye)      :      0.00000

Rotational constants in cm-1:     0.000000     0.000000     0.000000
Rotational constants in MHz :     0.000000     0.000000     0.000000

                             ****ORCA TERMINATED NORMALLY****
TOTAL RUN TIME: 0 days 0 hours 0 minutes 1 seconds 689 msec
