                         Program Version 4.2.0 -  RELEASE  -
|  1> #
|  2> # 75_Re CCSD(T)/Def2-QZVP
|  3> #
|  4> ! CCSD(T) Def2-QZVP tightscf slowconv
|  5>
|  6> *xyz 0 6
|  7>  Re 0.0 0.0 0.0
|  8> *
|  9>
| 10> %maxcore 5000
| 11>
| 12> %pal
| 13> nprocs 24
| 14> end
| 15>
| 16> %method
| 17> NewNCore Re 60 end
| 18> end
| 19>
| 20>
| 21>                          ****END OF INPUT****

CARTESIAN COORDINATES (ANGSTROEM)
---------------------------------
  Re     0.000000    0.000000    0.000000

 Total Charge           Charge          ....    0
 Multiplicity           Mult            ....    6
 Number of Electrons    NEL             ....   15
 Basis Dimension        Dim             ....   72

ORBITAL ENERGIES
----------------
                 SPIN UP ORBITALS
  NO   OCC          E(Eh)            E(eV)
   0   1.0000      -3.790769      -103.1521
   1   1.0000      -2.231302       -60.7168
   2   1.0000      -2.231302       -60.7168
   3   1.0000      -2.231302       -60.7168
   4   1.0000      -0.442736       -12.0475
   5   1.0000      -0.442736       -12.0475
   6   1.0000      -0.442736       -12.0475
   7   1.0000      -0.442736       -12.0475
   8   1.0000      -0.442736       -12.0475
   9   1.0000      -0.325647        -8.8613
  10   0.0000       0.038416         1.0453
  11   0.0000       0.038416         1.0453
  12   0.0000       0.038416         1.0453
  13   0.0000       0.104279         2.8376
  14   0.0000       0.257588         7.0093

                 SPIN DOWN ORBITALS
  NO   OCC          E(Eh)            E(eV)
   0   1.0000      -3.572852       -97.2223
   1   1.0000      -1.914592       -52.0987
   2   1.0000      -1.914592       -52.0987
   3   1.0000      -1.914592       -52.0987
   4   1.0000      -0.222860        -6.0643
   5   0.0000       0.052998         1.4422
   6   0.0000       0.052998         1.4422
   7   0.0000       0.052998         1.4422
   8   0.0000       0.127112         3.4589
   9   0.0000       0.133628         3.6362

E(0)                                       ...    -77.535310375
E(0)                                       ...    -77.535310375
E(CORR)                                    ...     -0.394633422
E(TOT)                                     ...    -77.929943797
E(CCSD(T))                                 ...    -77.944516647

MULLIKEN ATOMIC CHARGES AND SPIN DENSITIES
------------------------------------------
   0 Re:   -0.000000    5.000000
Sum of atomic charges       :   -0.0000000

LOEWDIN ATOMIC CHARGES AND SPIN DENSITIES
-----------------------------------------
   0 Re:   -0.000000    5.000000

FINAL SINGLE POINT ENERGY       -77.944516647170

DIPOLE MOMENT
-------------
                                X             Y             Z
Electronic contribution:     -0.00000      -0.00000      -0.00000
Nuclear contribution   :      0.00000       0.00000       0.00000
                        -----------------------------------------
Total Dipole Moment    :     -0.00000      -0.00000      -0.00000
                        -----------------------------------------
Magnitude (a.u.)       :      0.00000
Magnitude (Debye)      :      0.00000

Rotational constants in cm-1:     0.000000     0.000000     0.000000
Rotational constants in MHz :     0.000000     0.000000     0.000000

                             ****ORCA TERMINATED NORMALLY****
TOTAL RUN TIME: 0 days 0 hours 0 minutes 20 seconds 900 msec
