                         Program Version 4.2.0 -  RELEASE  -
|  1> #
|  2> # 76_Os CCSD(T)/Def2-QZVP
|  3> #
|  4> ! CCSD(T) Def2-QZVP tightscf slowconv
|  5>
|  6> *xyz 0 5
|  7>  Os 0.0 0.0 0.0
|  8> *
|  9>
| 10> %maxcore 5000
| 11>
| 12> %pal
| 13> nprocs 24
| 14> end
| 15>
| 16> %method
| 17> NewNCore Os 60 end
| 18> end
| 19>
| 20>
| 21>                          ****END OF INPUT****

CARTESIAN COORDINATES (ANGSTROEM)
---------------------------------
  Os     0.000000    0.000000    0.000000

 Total Charge           Charge          ....    0
 Multiplicity           Mult            ....    5
 Number of Electrons    NEL             ....   16
 Basis Dimension        Dim             ....   72

ORBITAL ENERGIES
----------------
                 SPIN UP ORBITALS
  NO   OCC          E(Eh)            E(eV)
   0   1.0000      -4.082878      -111.1008
   1   1.0000      -2.424706       -65.9796
   2   1.0000      -2.374221       -64.6058
   3   1.0000      -2.374189       -64.6050
   4   1.0000      -0.505001       -13.7418
   5   1.0000      -0.497593       -13.5402
   6   1.0000      -0.497582       -13.5399
   7   1.0000      -0.478586       -13.0230
   8   1.0000      -0.442337       -12.0366
   9   1.0000      -0.325345        -8.8531
  10   0.0000       0.030364         0.8262
  11   0.0000       0.038824         1.0565
  12   0.0000       0.038828         1.0566
  13   0.0000       0.113673         3.0932
  14   0.0000       0.183230         4.9859

                 SPIN DOWN ORBITALS
  NO   OCC          E(Eh)            E(eV)
   0   1.0000      -3.887364      -105.7805
   1   1.0000      -2.124981       -57.8237
   2   1.0000      -2.124957       -57.8230
   3   1.0000      -2.089351       -56.8541
   4   1.0000      -0.346088        -9.4175
   5   1.0000      -0.247284        -6.7290
   6   0.0000       0.040889         1.1126
   7   0.0000       0.042620         1.1598
   8   0.0000       0.042622         1.1598
   9   0.0000       0.095114         2.5882
  10   0.0000       0.103757         2.8234

E(0)                                       ...    -89.839143948
E(0)                                       ...    -89.839143948
E(CORR)                                    ...     -0.448338649
E(TOT)                                     ...    -90.287482597
E(CCSD(T))                                 ...    -90.304345873

MULLIKEN ATOMIC CHARGES AND SPIN DENSITIES
------------------------------------------
   0 Os:    0.000000    4.000000
Sum of atomic charges       :    0.0000000

LOEWDIN ATOMIC CHARGES AND SPIN DENSITIES
-----------------------------------------
   0 Os:   -0.000000    4.000000

FINAL SINGLE POINT ENERGY       -90.304345873299

DIPOLE MOMENT
-------------
                                X             Y             Z
Electronic contribution:     -0.00000      -0.00000       0.00000
Nuclear contribution   :      0.00000       0.00000       0.00000
                        -----------------------------------------
Total Dipole Moment    :     -0.00000      -0.00000       0.00000
                        -----------------------------------------
Magnitude (a.u.)       :      0.00000
Magnitude (Debye)      :      0.00000

Rotational constants in cm-1:     0.000000     0.000000     0.000000
Rotational constants in MHz :     0.000000     0.000000     0.000000

                             ****ORCA TERMINATED NORMALLY****
TOTAL RUN TIME: 0 days 0 hours 0 minutes 23 seconds 617 msec
