                         Program Version 4.2.0 -  RELEASE  -
|  1> #
|  2> # 77_Ir CCSD(T)/Def2-QZVP
|  3> #
|  4> ! CCSD(T) Def2-QZVP tightscf slowconv
|  5>
|  6> *xyz 0 4
|  7>  Ir 0.0 0.0 0.0
|  8> *
|  9>
| 10> %maxcore 5000
| 11>
| 12> %pal
| 13> nprocs 24
| 14> end
| 15>
| 16> %method
| 17> NewNCore Ir 60 end
| 18> end
| 19>
| 20>
| 21>                          ****END OF INPUT****

CARTESIAN COORDINATES (ANGSTROEM)
---------------------------------
  Ir     0.000000    0.000000    0.000000

 Total Charge           Charge          ....    0
 Multiplicity           Mult            ....    4
 Number of Electrons    NEL             ....   17
 Basis Dimension        Dim             ....   72

ORBITAL ENERGIES
----------------
                 SPIN UP ORBITALS
  NO   OCC          E(Eh)            E(eV)
   0   1.0000      -4.206594      -114.4672
   1   1.0000      -2.416883       -65.7667
   2   1.0000      -2.416882       -65.7667
   3   1.0000      -2.416881       -65.7667
   4   1.0000      -0.430085       -11.7032
   5   1.0000      -0.430085       -11.7032
   6   1.0000      -0.391961       -10.6658
   7   1.0000      -0.391960       -10.6658
   8   1.0000      -0.391960       -10.6658
   9   1.0000      -0.291362        -7.9284
  10   0.0000       0.041951         1.1416
  11   0.0000       0.041952         1.1416
  12   0.0000       0.041952         1.1416
  13   0.0000       0.122417         3.3311
  14   0.0000       0.214705         5.8424

                 SPIN DOWN ORBITALS
  NO   OCC          E(Eh)            E(eV)
   0   1.0000      -4.104350      -111.6850
   1   1.0000      -2.278128       -61.9910
   2   1.0000      -2.278128       -61.9910
   3   1.0000      -2.278128       -61.9910
   4   1.0000      -0.339091        -9.2271
   5   1.0000      -0.339090        -9.2271
   6   1.0000      -0.339090        -9.2271
   7   0.0000       0.003553         0.0967
   8   0.0000       0.069121         1.8809
   9   0.0000       0.069121         1.8809
  10   0.0000       0.069121         1.8809
  11   0.0000       0.156968         4.2713

E(0)                                       ...   -103.439409584
E(0)                                       ...   -103.439409584
E(CORR)                                    ...     -0.495479254
E(TOT)                                     ...   -103.934888838
E(CCSD(T))                                 ...   -103.952843742

MULLIKEN ATOMIC CHARGES AND SPIN DENSITIES
------------------------------------------
   0 Ir:   -0.000000    3.000000
Sum of atomic charges       :   -0.0000000

LOEWDIN ATOMIC CHARGES AND SPIN DENSITIES
-----------------------------------------
   0 Ir:   -0.000000    3.000000

FINAL SINGLE POINT ENERGY      -103.952843741796

DIPOLE MOMENT
-------------
                                X             Y             Z
Electronic contribution:     -0.00000       0.00000       0.00000
Nuclear contribution   :      0.00000       0.00000       0.00000
                        -----------------------------------------
Total Dipole Moment    :     -0.00000       0.00000       0.00000
                        -----------------------------------------
Magnitude (a.u.)       :      0.00000
Magnitude (Debye)      :      0.00000

Rotational constants in cm-1:     0.000000     0.000000     0.000000
Rotational constants in MHz :     0.000000     0.000000     0.000000

                             ****ORCA TERMINATED NORMALLY****
TOTAL RUN TIME: 0 days 0 hours 0 minutes 21 seconds 767 msec
