                         Program Version 4.2.0 -  RELEASE  -
|  1> # input to generate an atomic fitting density for Pt
|  2> # this file is use internally by ORCA
|  3> #
|  4> # atomic ground state (S=3): 1s2 2s2 2p6 3s2 3p6 4s2 3d10 4p6 5s2 4d10 5p6 6s2 4f14 5d8
|  5> #
|  6> ! RHF AllowRHF def2-SVP def2/J  NoMulliken NoLoewdin NoMayer NoPrintMOs
|  7>
|  8> %output print[p_atomdensfit] 2 end
|  9>
| 10> %scf
| 11>   guess hcore
| 12>   maxiter 1000
| 13>   maxdisk 500000
| 14>   SCFMode Conventional
| 15>   lshift 1.000000
| 16>   hftyp rohf
| 17>   rohf_case sahf
| 18>   rohf_numop   2
| 19>   rohf_norb[1] 5
| 20>   rohf_nel[1]  8
| 21> end
| 22>
| 23> %basis
| 24>   NewECP 78
| 25>     N_core 60
| 26>     lmax f
| 27>     s 3
| 28>       1      13.4286513000    579.2238609000  2
| 29>       2       6.7143256000     29.6694906000  2
| 30>       3       3.3095686000    -24.3143757000  2
| 31>     p 3
| 32>       1      10.3659442000    280.8607742000  2
| 33>       2       5.1829721000     26.7453820000  2
| 34>       3       3.3095686000    -24.3143757000  2
| 35>     d 3
| 36>       1       7.6004795000    120.3964443000  2
| 37>       2       3.8002397000     15.8109206000  2
| 38>       3       3.3095686000    -24.3143757000  2
| 39>     f 1
| 40>       1       3.3095686000     24.3143757000  2
| 41>   end
| 42>   NewGTO 78
| 43>     s 4
| 44>      1      23.4655072220      5.3517644267
| 45>      2      20.6570911160    -12.3144545857
| 46>      3      15.7251078580     10.8830115408
| 47>      4       7.9297463605     -4.0998948817
| 48>     s 1
| 49>      1       4.6667116243      1.0000000000
| 50>     s 1
| 51>      1       1.4202522633      1.0000000000
| 52>     s 1
| 53>      1       0.6678667154      1.0000000000
| 54>     s 1
| 55>      1       0.1974505969      1.0000000000
| 56>     s 1
| 57>      1       0.0925739204      1.0000000000
| 58>     s 1
| 59>      1       0.0388959369      1.0000000000
| 60>     p 4
| 61>      1      15.5000000000     -0.3478541841
| 62>      2      14.0000000000      0.5294237528
| 63>      3       6.1161212339     -0.6889598464
| 64>      4       1.5715586385      1.2534233823
| 65>     p 1
| 66>      1       0.7513251078      1.0000000000
| 67>     p 1
| 68>      1       0.3330646681      1.0000000000
| 69>     p 1
| 70>      1       0.0910000000      1.0000000000
| 71>     p 1
| 72>      1       0.0350000000      1.0000000000
| 73>     d 3
| 74>      1       8.3207937611      0.4037693760
| 75>      2       7.4207226520     -0.5790520785
| 76>      3       1.6570410639      1.0784420581
| 77>     d 1
| 78>      1       0.7394356996      1.0000000000
| 79>     d 1
| 80>      1       0.3050829009      1.0000000000
| 81>     d 1
| 82>      1       0.1135043592      1.0000000000
| 83>   end
| 84>   NewAuxGTO 78
| 85>     S 1
| 86>      1 1310.72 1.0
| 87>     S 1
| 88>      1  655.36 1.0
| 89>     S 1
| 90>      1  327.68 1.0
| 91>     S 1
| 92>      1  163.84 1.0
| 93>     S 1
| 94>      1   81.82 1.0
| 95>     S 1
| 96>      1   40.96 1.0
| 97>     S 1
| 98>      1   20.48 1.0
| 99>     S 1
|100>      1   10.24 1.0
|101>     S 1
|102>      1    5.12 1.0
|103>     S 1
|104>      1    2.56 1.0
|105>     S 1
|106>      1    1.28 1.0
|107>     S 1
|108>      1    0.64 1.0
|109>     S 1
|110>      1    0.32 1.0
|111>     S 1
|112>      1    0.16 1.0
|113>     S 1
|114>      1    0.08 1.0
|115>     S 1
|116>      1    0.04 1.0
|117>     S 1
|118>      1    0.02 1.0
|119>     S 1
|120>      1    0.01 1.0
|121>   end
|122> end
|123>
|124> * xyz 0 3
|125> 78  0.0 0.0 0.0
|126> *
|127>
|128>
|129>                          ****END OF INPUT****

CARTESIAN COORDINATES (ANGSTROEM)
---------------------------------
  Pt     0.000000    0.000000    0.000000

 Total Charge           Charge          ....    0
 Multiplicity           Mult            ....    3
 Number of Electrons    NEL             ....   18
 Basis Dimension        Dim             ....   42

ORBITAL ENERGIES
----------------

  NO   OCC          E(Eh)            E(eV)
   0   2.0000      -4.504497      -122.5736
   1   2.0000      -2.597485       -70.6812
   2   2.0000      -2.594979       -70.6130
   3   2.0000      -2.591930       -70.5300
   4   2.0000      -0.458912       -12.4876
   5   1.6000      -0.476876       -12.9765
   6   1.6000      -0.475979       -12.9521
   7   1.6000      -0.468273       -12.7424
   8   1.6000      -0.461956       -12.5705
   9   1.6000      -0.308123        -8.3845
  10   0.0000       0.011927         0.3245
  11   0.0000       0.013138         0.3575
  12   0.0000       0.014590         0.3970
  13   0.0000       0.092699         2.5225
  14   0.0000       0.170956         4.6520

CleanUpVectors: The p-vectors have cracked symmetry
CleanUpVectors: The p-vectors have cracked symmetry
CleanUpVectors: The p-vectors have cracked symmetry
CleanUpVectors: The d-vectors have cracked symmetry at i=4
CleanUpVectors: The d-vectors have cracked symmetry at i=5
CleanUpVectors: The d-vectors have cracked symmetry at i=6
CleanUpVectors: The d-vectors have cracked symmetry at i=7
CleanUpVectors: The d-vectors have cracked symmetry at i=8
CleanUpVectors: The p-vectors have cracked symmetry
CleanUpVectors: The p-vectors have cracked symmetry
CleanUpVectors: The p-vectors have cracked symmetry
CleanUpVectors: The p-vectors have cracked symmetry
CleanUpVectors: The p-vectors have cracked symmetry
CleanUpVectors: The p-vectors have cracked symmetry
CleanUpVectors: The d-vectors have cracked symmetry at i=17
CleanUpVectors: The d-vectors have cracked symmetry at i=18
CleanUpVectors: The d-vectors have cracked symmetry at i=19
CleanUpVectors: The d-vectors have cracked symmetry at i=20
CleanUpVectors: The d-vectors have cracked symmetry at i=21
CleanUpVectors: The p-vectors have cracked symmetry
CleanUpVectors: The p-vectors have cracked symmetry
CleanUpVectors: The p-vectors have cracked symmetry
CleanUpVectors: The d-vectors have cracked symmetry at i=26
CleanUpVectors: The d-vectors have cracked symmetry at i=27
CleanUpVectors: The d-vectors have cracked symmetry at i=28
CleanUpVectors: The d-vectors have cracked symmetry at i=29
CleanUpVectors: The d-vectors have cracked symmetry at i=30
CleanUpVectors: The d-vectors have cracked symmetry at i=32
CleanUpVectors: The d-vectors have cracked symmetry at i=33
CleanUpVectors: The d-vectors have cracked symmetry at i=34
CleanUpVectors: The d-vectors have cracked symmetry at i=35
CleanUpVectors: The d-vectors have cracked symmetry at i=36
CleanUpVectors: The p-vectors have cracked symmetry
CleanUpVectors: The p-vectors have cracked symmetry
CleanUpVectors: The p-vectors have cracked symmetry
--------------------------
ATOM BASIS FOR ELEMENT Pt
--------------------------
 NewGTO Pt
 S 10
    1         23.465507222000        -0.545434557952
    2         20.657091116000         1.255049467399
    3         15.725107858000        -1.109161412137
    4          7.929746360500         0.417848054241
    5          4.666711624300         0.619287162326
    6          1.420252263300        -0.877637328130
    7          0.667866715400        -0.512686943150
    8          0.197450596900        -0.027944104041
    9          0.092573920400         0.003408560312
   10          0.038895936900        -0.002296489953
 P 24
    1         15.500000000000        -0.103412655660
    2         14.000000000000         0.157390995276
    3          6.116121233900        -0.204819061020
    4          1.571558638500         0.372626941272
    5         15.500000000000         0.083631151713
    6         14.000000000000        -0.127284132877
    7          6.116121233900         0.165639822868
    8          1.571558638500        -0.301348225310
    9         15.500000000000         0.084176387168
   10         14.000000000000        -0.128113965071
   11          6.116121233900         0.166719715975
   12          1.571558638500        -0.303312872855
   13          0.751325107800         0.322712064360
   14          0.751325107800        -0.260981418974
   15          0.751325107800        -0.262682894082
   16          0.333064668100         0.074853737580
   17          0.333064668100        -0.060535185407
   18          0.333064668100        -0.060929846114
   19          0.091000000000         0.003225517920
   20          0.091000000000        -0.002608518047
   21          0.091000000000        -0.002625524348
   22          0.035000000000        -0.000451815673
   23          0.035000000000         0.000365389177
   24          0.035000000000         0.000367771341
 D 24
    1         23.465507222000        -0.000020475352
    2         20.657091116000         0.000053519290
    3         15.725107858000        -0.000062132636
    4          7.929746360500         0.000046417073
    5          4.666711624300         0.000132303864
    6          1.420252263300        -0.000964189267
    7          0.667866715400        -0.000277874767
    8          0.197450596900         0.007298400545
    9          0.092573920400        -0.002602780050
   10          0.038895936900        -0.011179389212
   11          8.320793761100        -0.003304137012
   12          7.420722652000         0.004738515396
   13          1.657041063900        -0.008825137645
   14          8.320793761100         0.032547214151
   15          7.420722652000        -0.046676477029
   16          1.657041063900         0.086931517597
   17          8.320793761100        -0.083865891911
   18          7.420722652000         0.120273408319
   19          1.657041063900        -0.224000408286
   20          8.320793761100         0.071607072797
   21          7.420722652000        -0.102692841020
   22          1.657041063900         0.191257890152
   23          8.320793761100         0.004828464870
   24          7.420722652000        -0.006924578200
 S 10
    1         23.465507222000        -0.180996696028
    2         20.657091116000         0.416474907281
    3         15.725107858000        -0.368063497319
    4          7.929746360500         0.138658462609
    5          4.666711624300         0.224802501063
    6          1.420252263300        -0.058572649231
    7          0.667866715400        -1.764685952825
    8          0.197450596900         5.357675567243
    9          0.092573920400        -5.534827871956
   10          0.038895936900         1.809206124367
 S 10
    1         23.465507222000        -0.860058107798
    2         20.657091116000         1.979000879916
    3         15.725107858000        -1.748960074967
    4          7.929746360500         0.658875756290
    5          4.666711624300         1.271660799260
    6          1.420252263300        -5.484704513319
    7          0.667866715400         6.346060683566
    8          0.197450596900        -4.520134991191
    9          0.092573920400         3.031714682194
   10          0.038895936900        -0.833444921178
 S 10
    1         23.465507222000        -4.662673453047
    2         20.657091116000        10.728850507513
    3         15.725107858000        -9.481719476912
    4          7.929746360500         3.571994112785
    5          4.666711624300         1.403762946373
    6          1.420252263300        -2.521410962627
    7          0.667866715400         1.896599901444
    8          0.197450596900        -1.019983321214
    9          0.092573920400         0.675659223629
   10          0.038895936900        -0.190050456128
 S 10
    1         23.465507222000        -5.168303119577
    2         20.657091116000        11.892308587732
    3         15.725107858000       -10.509936165369
    4          7.929746360500         3.959348322829
    5          4.666711624300        -0.944500934309
    6          1.420252263300        -0.255968917042
    7          0.667866715400         0.245360068453
    8          0.197450596900        -0.145968161665
    9          0.092573920400         0.098785872773
   10          0.038895936900        -0.028110217826
 D 24
    1          8.320793761100        -0.074862073209
    2          7.420722652000         0.107360888837
    3          1.657041063900        -0.199951787094
    4          8.320793761100         0.043350417794
    5          7.420722652000        -0.062169523049
    6          1.657041063900         0.115786180341
    7          8.320793761100        -0.026259143920
    8          7.420722652000         0.037658655585
    9          1.657041063900        -0.070136486065
   10          8.320793761100        -0.056802387034
   11          7.420722652000         0.081461205904
   12          1.657041063900        -0.151715525792
   13          8.320793761100         0.042853425441
   14          7.420722652000        -0.061456778417
   15          1.657041063900         0.114458745700
   16          0.739435699600        -0.298252922656
   17          0.739435699600         0.172709467576
   18          0.739435699600        -0.104617279283
   19          0.739435699600        -0.226302548416
   20          0.739435699600         0.170729433954
   21          0.305082900900        -0.222902923112
   22          0.305082900900         0.129076506037
   23          0.305082900900        -0.078186986912
   24          0.305082900900        -0.169129942132
 P 24
    1         15.500000000000        -0.024731377639
    2         14.000000000000         0.037640423372
    3          6.116121233900        -0.048982955842
    4          1.571558638500         0.089114601536
    5         15.500000000000         0.020000584862
    6         14.000000000000        -0.030440297055
    7          6.116121233900         0.039613149717
    8          1.571558638500        -0.072068130474
    9         15.500000000000         0.020130979192
   10         14.000000000000        -0.030638753359
   11          6.116121233900         0.039871408671
   12          1.571558638500        -0.072537980514
   13          0.751325107800         0.104561883587
   14          0.751325107800        -0.084560547195
   15          0.751325107800        -0.085111841869
   16          0.333064668100         0.086987338716
   17          0.333064668100        -0.070347785526
   18          0.333064668100        -0.070806419733
   19          0.091000000000        -1.112942639891
   20          0.091000000000         0.900051102725
   21          0.091000000000         0.905919009162
   22          0.035000000000         0.823186301656
   23          0.035000000000        -0.665721405576
   24          0.035000000000        -0.670061593494
 D 24
    1         23.465507222000        -0.000015298558
    2         20.657091116000         0.000039987980
    3         15.725107858000        -0.000046423609
    4          7.929746360500         0.000034681420
    5          4.666711624300         0.000098485512
    6          1.420252263300        -0.000522008140
    7          0.667866715400        -0.001909784498
    8          0.197450596900         0.021965875757
    9          0.092573920400        -0.045580598639
   10          0.038895936900         0.048382473546
   11          8.320793761100         0.009640205952
   12          7.420722652000        -0.013825172550
   13          1.657041063900         0.025748370643
   14          8.320793761100        -0.042405871069
   15          7.420722652000         0.060814933580
   16          1.657041063900        -0.113263356732
   17          8.320793761100        -0.024955461857
   18          7.420722652000         0.035789024421
   19          1.657041063900        -0.066654435045
   20          8.320793761100        -0.011082312896
   21          7.420722652000         0.015893321036
   22          1.657041063900        -0.029600145625
   23          8.320793761100         0.029756947725
   24          7.420722652000        -0.042674911605
 P 24
    1         15.500000000000        -0.062809926019
    2         14.000000000000         0.095594844811
    3          6.116121233900        -0.124401312275
    4          1.571558638500         0.226323078782
    5         15.500000000000         0.050795199277
    6         14.000000000000        -0.077308786999
    7          6.116121233900         0.100604949692
    8          1.571558638500        -0.183030400071
    9         15.500000000000         0.051126359890
   10         14.000000000000        -0.077812803632
   11          6.116121233900         0.101260846260
   12          1.571558638500        -0.184223671491
   13          0.751325107800         0.771119830619
   14          0.751325107800        -0.623614577269
   15          0.751325107800        -0.627680248610
   16          0.333064668100        -1.526790289213
   17          0.333064668100         1.234735047627
   18          0.333064668100         1.242784934656
   19          0.091000000000         0.979102554817
   20          0.091000000000        -0.791812895454
   21          0.091000000000        -0.796975140075
   22          0.035000000000        -0.402795823871
   23          0.035000000000         0.325746190741
   24          0.035000000000         0.327869901443
 D 24
    1         23.465507222000        -0.000023548468
    2         20.657091116000         0.000061551925
    3         15.725107858000        -0.000071458037
    4          7.929746360500         0.000053383746
    5          4.666711624300         0.000161822988
    6          1.420252263300        -0.001589869226
    7          0.667866715400         0.001626923466
    8          0.197450596900         0.004371803361
    9          0.092573920400        -0.005053717142
   10          0.038895936900         0.002204918671
   11          8.320793761100         0.007339669596
   12          7.420722652000        -0.010525936803
   13          1.657041063900         0.019603785862
   14          8.320793761100        -0.032318335306
   15          7.420722652000         0.046348238240
   16          1.657041063900        -0.086320196909
   17          8.320793761100        -0.018834933481
   18          7.420722652000         0.027011477414
   19          1.657041063900        -0.050306897042
   20          8.320793761100        -0.008558813853
   21          7.420722652000         0.012274330956
   22          1.657041063900        -0.022860041834
   23          8.320793761100         0.022628901297
   24          7.420722652000        -0.032452466950
 D 24
    1         23.465507222000        -0.000020968291
    2         20.657091116000         0.000054807756
    3         15.725107858000        -0.000063628467
    4          7.929746360500         0.000047534555
    5          4.666711624300         0.000163475853
    6          1.420252263300        -0.002074422395
    7          0.667866715400         0.004287351832
    8          0.197450596900        -0.006960457440
    9          0.092573920400         0.008393095168
   10          0.038895936900        -0.004708633998
   11          8.320793761100         0.125985527860
   12          7.420722652000        -0.180677847564
   13          1.657041063900         0.336499249403
   14          8.320793761100        -0.554811661107
   15          7.420722652000         0.795664219815
   16          1.657041063900        -1.481866296028
   17          8.320793761100        -0.322958135117
   18          7.420722652000         0.463159393762
   19          1.657041063900        -0.862600426426
   20          8.320793761100        -0.147164369367
   21          7.420722652000         0.211050760727
   22          1.657041063900        -0.393066574169
   23          8.320793761100         0.388369502062
   24          7.420722652000        -0.556966874563
 P 24
    1         15.500000000000        -0.610138741537
    2         14.000000000000         0.928613071333
    3          6.116121233900        -1.208440527285
    4          1.571558638500         2.198513630268
    5         15.500000000000         0.493427089007
    6         14.000000000000        -0.750981397194
    7          6.116121233900         0.977281478822
    8          1.571558638500        -1.777966398252
    9         15.500000000000         0.496643999779
   10         14.000000000000        -0.755877439994
   11          6.116121233900         0.983652890905
   12          1.571558638500        -1.789557896544
   13          0.751325107800        -2.692480302808
   14          0.751325107800         2.177443633026
   15          0.751325107800         2.191639533566
   16          0.333064668100         1.445073648429
   17          0.333064668100        -1.168649743415
   18          0.333064668100        -1.176268785888
   19          0.091000000000        -0.498599614669
   20          0.091000000000         0.403223954975
   21          0.091000000000         0.405852784063
   22          0.035000000000         0.197746360865
   23          0.035000000000        -0.159920038773
   24          0.035000000000        -0.160962641635
 end
  // -----------------------------------------------
  // The basis set
  // -----------------------------------------------
  BAS[ATNO] = new BFNGauss[NSH];
  // Basis function   1 L = s
  InitBFNGauss(BAS[ATNO][  0]);
  BAS[ATNO][  0].l  = 0;
  BAS[ATNO][  0].ng = 10;
  BAS[ATNO][  0].a[  0] =        23.465507222000;     BAS[ATNO][  0].d[  0] =        -0.545434557952;
  BAS[ATNO][  0].a[  1] =        20.657091116000;     BAS[ATNO][  0].d[  1] =         1.255049467399;
  BAS[ATNO][  0].a[  2] =        15.725107858000;     BAS[ATNO][  0].d[  2] =        -1.109161412137;
  BAS[ATNO][  0].a[  3] =         7.929746360500;     BAS[ATNO][  0].d[  3] =         0.417848054241;
  BAS[ATNO][  0].a[  4] =         4.666711624300;     BAS[ATNO][  0].d[  4] =         0.619287162326;
  BAS[ATNO][  0].a[  5] =         1.420252263300;     BAS[ATNO][  0].d[  5] =        -0.877637328130;
  BAS[ATNO][  0].a[  6] =         0.667866715400;     BAS[ATNO][  0].d[  6] =        -0.512686943150;
  BAS[ATNO][  0].a[  7] =         0.197450596900;     BAS[ATNO][  0].d[  7] =        -0.027944104041;
  BAS[ATNO][  0].a[  8] =         0.092573920400;     BAS[ATNO][  0].d[  8] =         0.003408560312;
  BAS[ATNO][  0].a[  9] =         0.038895936900;     BAS[ATNO][  0].d[  9] =        -0.002296489953;

FINAL SINGLE POINT ENERGY      -118.366403477780

DIPOLE MOMENT
-------------
                                X             Y             Z
Electronic contribution:     -0.00000       0.00000      -0.00000
Nuclear contribution   :      0.00000       0.00000       0.00000
                        -----------------------------------------
Total Dipole Moment    :     -0.00000       0.00000      -0.00000
                        -----------------------------------------
Magnitude (a.u.)       :      0.00000
Magnitude (Debye)      :      0.00000

Rotational constants in cm-1:     0.000000     0.000000     0.000000
Rotational constants in MHz :     0.000000     0.000000     0.000000

                             ****ORCA TERMINATED NORMALLY****
TOTAL RUN TIME: 0 days 0 hours 0 minutes 1 seconds 605 msec
