                         Program Version 4.2.0 -  RELEASE  -
|  1> #
|  2> # 78_Pt CCSD(T)/Def2-QZVP
|  3> #
|  4> ! CCSD(T) Def2-QZVP tightscf veryslowconv kdiis
|  5>
|  6> *xyz 0 3
|  7>  Pt 0.0 0.0 0.0
|  8> *
|  9>
| 10> %maxcore 5000
| 11>
| 12> %pal
| 13> nprocs 24
| 14> end
| 15>
| 16> %method
| 17> NewNCore Pt 60 end
| 18> end
| 19>
| 20>
| 21>                          ****END OF INPUT****

CARTESIAN COORDINATES (ANGSTROEM)
---------------------------------
  Pt     0.000000    0.000000    0.000000

 Total Charge           Charge          ....    0
 Multiplicity           Mult            ....    3
 Number of Electrons    NEL             ....   18
 Basis Dimension        Dim             ....   72

ORBITAL ENERGIES
----------------
                 SPIN UP ORBITALS
  NO   OCC          E(Eh)            E(eV)
   0   1.0000      -4.462059      -121.4188
   1   1.0000      -2.607411       -70.9513
   2   1.0000      -2.553002       -69.4707
   3   1.0000      -2.552544       -69.4582
   4   1.0000      -0.480895       -13.0858
   5   1.0000      -0.433127       -11.7860
   6   1.0000      -0.432963       -11.7815
   7   1.0000      -0.415219       -11.2987
   8   1.0000      -0.415218       -11.2987
   9   1.0000      -0.291469        -7.9313
  10   0.0000       0.039766         1.0821
  11   0.0000       0.045880         1.2484
  12   0.0000       0.045939         1.2501
  13   0.0000       0.128037         3.4841
  14   0.0000       0.207808         5.6547

                 SPIN DOWN ORBITALS
  NO   OCC          E(Eh)            E(eV)
   0   1.0000      -4.405016      -119.8666
   1   1.0000      -2.510766       -68.3214
   2   1.0000      -2.510459       -68.3130
   3   1.0000      -2.471568       -67.2548
   4   1.0000      -0.407158       -11.0793
   5   1.0000      -0.406868       -11.0714
   6   1.0000      -0.372000       -10.1226
   7   1.0000      -0.371999       -10.1226
   8   0.0000      -0.003229        -0.0879
   9   0.0000       0.067224         1.8293
  10   0.0000       0.069295         1.8856
  11   0.0000       0.069313         1.8861
  12   0.0000       0.115429         3.1410

E(0)                                       ...   -118.399790015
E(0)                                       ...   -118.399790015
E(CORR)                                    ...     -0.548089141
E(TOT)                                     ...   -118.947879156
E(CCSD(T))                                 ...   -118.967807080

MULLIKEN ATOMIC CHARGES AND SPIN DENSITIES
------------------------------------------
   0 Pt:   -0.000000    2.000000
Sum of atomic charges       :   -0.0000000

LOEWDIN ATOMIC CHARGES AND SPIN DENSITIES
-----------------------------------------
   0 Pt:   -0.000000    2.000000

FINAL SINGLE POINT ENERGY      -118.967807080029

DIPOLE MOMENT
-------------
                                X             Y             Z
Electronic contribution:      0.00000      -0.00000       0.00000
Nuclear contribution   :      0.00000       0.00000       0.00000
                        -----------------------------------------
Total Dipole Moment    :      0.00000      -0.00000       0.00000
                        -----------------------------------------
Magnitude (a.u.)       :      0.00000
Magnitude (Debye)      :      0.00000

Rotational constants in cm-1:     0.000000     0.000000     0.000000
Rotational constants in MHz :     0.000000     0.000000     0.000000

                             ****ORCA TERMINATED NORMALLY****
TOTAL RUN TIME: 0 days 0 hours 0 minutes 23 seconds 787 msec
