                         Program Version 4.2.0 -  RELEASE  -
|  1> #
|  2> # 79_Au CCSD(T)/Def2-QZVP
|  3> #
|  4> ! CCSD(T) Def2-QZVP tightscf slowconv
|  5>
|  6> *xyz 0 2
|  7>  Au 0.0 0.0 0.0
|  8> *
|  9>
| 10> %maxcore 5000
| 11>
| 12> %pal
| 13> nprocs 24
| 14> end
| 15>
| 16> %method
| 17> NewNCore Au 60 end
| 18> end
| 19>
| 20>
| 21>                          ****END OF INPUT****

CARTESIAN COORDINATES (ANGSTROEM)
---------------------------------
  Au     0.000000    0.000000    0.000000

 Total Charge           Charge          ....    0
 Multiplicity           Mult            ....    2
 Number of Electrons    NEL             ....   19
 Basis Dimension        Dim             ....   72

ORBITAL ENERGIES
----------------
                 SPIN UP ORBITALS
  NO   OCC          E(Eh)            E(eV)
   0   1.0000      -4.688813      -127.5891
   1   1.0000      -2.724348       -74.1333
   2   1.0000      -2.724348       -74.1333
   3   1.0000      -2.724348       -74.1333
   4   1.0000      -0.457764       -12.4564
   5   1.0000      -0.457764       -12.4564
   6   1.0000      -0.457764       -12.4564
   7   1.0000      -0.457764       -12.4564
   8   1.0000      -0.457764       -12.4564
   9   1.0000      -0.292130        -7.9493
  10   0.0000       0.036633         0.9968
  11   0.0000       0.036633         0.9968
  12   0.0000       0.036633         0.9968
  13   0.0000       0.119750         3.2586
  14   0.0000       0.166803         4.5389

                 SPIN DOWN ORBITALS
  NO   OCC          E(Eh)            E(eV)
   0   1.0000      -4.687339      -127.5490
   1   1.0000      -2.728330       -74.2416
   2   1.0000      -2.728330       -74.2416
   3   1.0000      -2.728330       -74.2416
   4   1.0000      -0.449245       -12.2246
   5   1.0000      -0.449245       -12.2246
   6   1.0000      -0.449245       -12.2246
   7   1.0000      -0.449245       -12.2246
   8   1.0000      -0.449245       -12.2246
   9   0.0000      -0.009233        -0.2513
  10   0.0000       0.052734         1.4350
  11   0.0000       0.052734         1.4350
  12   0.0000       0.052734         1.4350
  13   0.0000       0.150121         4.0850

E(0)                                       ...   -134.789916936
E(0)                                       ...   -134.789916936
E(CORR)                                    ...     -0.594356069
E(TOT)                                     ...   -135.384273004
E(CCSD(T))                                 ...   -135.405226849

MULLIKEN ATOMIC CHARGES AND SPIN DENSITIES
------------------------------------------
   0 Au:   -0.000000    1.000000
Sum of atomic charges       :   -0.0000000

LOEWDIN ATOMIC CHARGES AND SPIN DENSITIES
-----------------------------------------
   0 Au:   -0.000000    1.000000

FINAL SINGLE POINT ENERGY      -135.405226849433

DIPOLE MOMENT
-------------
                                X             Y             Z
Electronic contribution:     -0.00000       0.00000      -0.00000
Nuclear contribution   :      0.00000       0.00000       0.00000
                        -----------------------------------------
Total Dipole Moment    :     -0.00000       0.00000      -0.00000
                        -----------------------------------------
Magnitude (a.u.)       :      0.00000
Magnitude (Debye)      :      0.00000

Rotational constants in cm-1:     0.000000     0.000000     0.000000
Rotational constants in MHz :     0.000000     0.000000     0.000000

                             ****ORCA TERMINATED NORMALLY****
TOTAL RUN TIME: 0 days 0 hours 0 minutes 21 seconds 766 msec
