                         Program Version 4.2.0 -  RELEASE  -
|  1> #
|  2> # 80_Hg CCSD(T)/Def2-QZVP
|  3> #
|  4> ! CCSD(T) Def2-QZVP tightscf slowconv
|  5>
|  6> *xyz 0 1
|  7>  Hg 0.0 0.0 0.0
|  8> *
|  9>
| 10> %maxcore 5000
| 11>
| 12> %pal
| 13> nprocs 24
| 14> end
| 15>
| 16> %method
| 17> NewNCore Hg 60 end
| 18> end
| 19>
| 20>
| 21>                          ****END OF INPUT****

CARTESIAN COORDINATES (ANGSTROEM)
---------------------------------
  Hg     0.000000    0.000000    0.000000

 Total Charge           Charge          ....    0
 Multiplicity           Mult            ....    1
 Number of Electrons    NEL             ....   20
 Basis Dimension        Dim             ....   72

ORBITAL ENERGIES
----------------

  NO   OCC          E(Eh)            E(eV)
   0   2.0000      -5.043841      -137.2499
   1   2.0000      -3.031869       -82.5013
   2   2.0000      -3.031869       -82.5013
   3   2.0000      -3.031869       -82.5013
   4   2.0000      -0.604306       -16.4440
   5   2.0000      -0.604306       -16.4440
   6   2.0000      -0.604306       -16.4440
   7   2.0000      -0.604306       -16.4440
   8   2.0000      -0.604306       -16.4440
   9   2.0000      -0.327014        -8.8985
  10   0.0000       0.048658         1.3241
  11   0.0000       0.048658         1.3241
  12   0.0000       0.048658         1.3241
  13   0.0000       0.123750         3.3674
  14   0.0000       0.249121         6.7789

E(0)                                       ...   -152.554579419
E(0)                                       ...   -152.554579419
E(CORR)                                    ...     -0.643380643
E(TOT)                                     ...   -153.197960062
E(CCSD(T))                                 ...   -153.220521929

MULLIKEN ATOMIC CHARGES
-----------------------
   0 Hg:    0.000000
Sum of atomic charges:    0.0000000

LOEWDIN ATOMIC CHARGES
----------------------
   0 Hg:    0.000000

FINAL SINGLE POINT ENERGY      -153.220521928590

DIPOLE MOMENT
-------------
                                X             Y             Z
Electronic contribution:     -0.00000      -0.00000      -0.00000
Nuclear contribution   :      0.00000       0.00000       0.00000
                        -----------------------------------------
Total Dipole Moment    :     -0.00000      -0.00000      -0.00000
                        -----------------------------------------
Magnitude (a.u.)       :      0.00000
Magnitude (Debye)      :      0.00000

Rotational constants in cm-1:     0.000000     0.000000     0.000000
Rotational constants in MHz :     0.000000     0.000000     0.000000

                             ****ORCA TERMINATED NORMALLY****
TOTAL RUN TIME: 0 days 0 hours 0 minutes 18 seconds 812 msec
