                         Program Version 4.2.0 -  RELEASE  -
|  1> #
|  2> # 81_Tl CCSD(T)/Def2-QZVP
|  3> #
|  4> ! CCSD(T) Def2-QZVP tightscf slowconv
|  5>
|  6> *xyz 0 2
|  7>  Tl 0.0 0.0 0.0
|  8> *
|  9>
| 10> %maxcore 5000
| 11>
| 12> %pal
| 13> nprocs 24
| 14> end
| 15>
| 16>
| 17>                          ****END OF INPUT****

CARTESIAN COORDINATES (ANGSTROEM)
---------------------------------
  Tl     0.000000    0.000000    0.000000

 Total Charge           Charge          ....    0
 Multiplicity           Mult            ....    2
 Number of Electrons    NEL             ....   21
 Basis Dimension        Dim             ....   82

ORBITAL ENERGIES
----------------
                 SPIN UP ORBITALS
  NO   OCC          E(Eh)            E(eV)
   0   1.0000      -5.643293      -153.5618
   1   1.0000      -3.468958       -94.3952
   2   1.0000      -3.468958       -94.3952
   3   1.0000      -3.464721       -94.2798
   4   1.0000      -0.846338       -23.0300
   5   1.0000      -0.846338       -23.0300
   6   1.0000      -0.839295       -22.8384
   7   1.0000      -0.839295       -22.8384
   8   1.0000      -0.837185       -22.7810
   9   1.0000      -0.473393       -12.8817
  10   1.0000      -0.192948        -5.2504
  11   0.0000       0.012424         0.3381
  12   0.0000       0.012424         0.3381
  13   0.0000       0.086511         2.3541
  14   0.0000       0.101377         2.7586
  15   0.0000       0.101377         2.7586

                 SPIN DOWN ORBITALS
  NO   OCC          E(Eh)            E(eV)
   0   1.0000      -5.642812      -153.5487
   1   1.0000      -3.471346       -94.4601
   2   1.0000      -3.471346       -94.4601
   3   1.0000      -3.460822       -94.1738
   4   1.0000      -0.847060       -23.0497
   5   1.0000      -0.847060       -23.0497
   6   1.0000      -0.835796       -22.7432
   7   1.0000      -0.835796       -22.7432
   8   1.0000      -0.832432       -22.6516
   9   1.0000      -0.422760       -11.5039
  10   0.0000       0.021190         0.5766
  11   0.0000       0.021190         0.5766
  12   0.0000       0.042642         1.1603
  13   0.0000       0.105885         2.8813
  14   0.0000       0.105885         2.8813

E(0)                                       ...   -171.515553374
E(0)                                       ...   -171.515553374
E(CORR)                                    ...     -0.388837818
E(TOT)                                     ...   -171.904391193
E(CCSD(T))                                 ...   -171.915097258

MULLIKEN ATOMIC CHARGES AND SPIN DENSITIES
------------------------------------------
   0 Tl:   -0.000000    1.000000
Sum of atomic charges       :   -0.0000000

LOEWDIN ATOMIC CHARGES AND SPIN DENSITIES
-----------------------------------------
   0 Tl:   -0.000000    1.000000

FINAL SINGLE POINT ENERGY      -171.915097258174

DIPOLE MOMENT
-------------
                                X             Y             Z
Electronic contribution:      0.00000       0.00000       0.00000
Nuclear contribution   :      0.00000       0.00000       0.00000
                        -----------------------------------------
Total Dipole Moment    :      0.00000       0.00000       0.00000
                        -----------------------------------------
Magnitude (a.u.)       :      0.00000
Magnitude (Debye)      :      0.00000

Rotational constants in cm-1:     0.000000     0.000000     0.000000
Rotational constants in MHz :     0.000000     0.000000     0.000000

                             ****ORCA TERMINATED NORMALLY****
TOTAL RUN TIME: 0 days 0 hours 0 minutes 38 seconds 847 msec
