                         Program Version 4.2.0 -  RELEASE  -
|  1> # input to generate an atomic fitting density for Tl
|  2> # this file is use internally by ORCA
|  3> #
|  4> # atomic ground state (S=2): 1s2 2s2 2p6 3s2 3p6 4s2 3d10 4p6 5s2 4d10 5p6 6s2 4f14 5d10 6p1
|  5> #
|  6> ! RHF AllowRHF def2-SVP def2/J  NoMulliken NoLoewdin NoMayer NoPrintMOs
|  7>
|  8> %output print[p_atomdensfit] 2 end
|  9>
| 10> %scf
| 11>   guess hcore
| 12>   maxiter 1000
| 13>   maxdisk 500000
| 14>   SCFMode Conventional
| 15>   lshift 1.000000
| 16>   hftyp rohf
| 17>   rohf_case sahf
| 18>   rohf_numop   2
| 19>   rohf_norb[1] 3
| 20>   rohf_nel[1]  1
| 21> end
| 22>
| 23> %basis
| 24>   NewECP 81
| 25>     N_core 60
| 26>     lmax f
| 27>     s 6
| 28>       1      12.1678050000    281.2846630000  2
| 29>       2       8.2949090000     62.4342510000  2
| 30>       3       5.6263990000    -15.8254880000  2
| 31>       4       5.5489520000    -21.1040210000  2
| 32>       5       2.8749460000     -2.9151270000  2
| 33>       6       2.8214510000     -3.8969030000  2
| 34>     p 8
| 35>       1       7.1514920000      4.6334080000  2
| 36>       2       5.1728650000      9.3417560000  2
| 37>       3       9.8910720000     72.2992530000  2
| 38>       4       9.0033910000    144.5580370000  2
| 39>       5       5.6263990000    -15.8254880000  2
| 40>       6       5.5489520000    -21.1040210000  2
| 41>       7       2.8749460000     -2.9151270000  2
| 42>       8       2.8214510000     -3.8969030000  2
| 43>     d 8
| 44>       1       7.1302180000     35.9430390000  2
| 45>       2       6.9269060000     53.9095930000  2
| 46>       3       5.4175700000     10.3819390000  2
| 47>       4       5.1386810000     15.5838220000  2
| 48>       5       5.6263990000    -15.8254880000  2
| 49>       6       5.5489520000    -21.1040210000  2
| 50>       7       2.8749460000     -2.9151270000  2
| 51>       8       2.8214510000     -3.8969030000  2
| 52>     f 4
| 53>       1       5.6263990000     15.8254880000  2
| 54>       2       5.5489520000     21.1040210000  2
| 55>       3       2.8749460000      2.9151270000  2
| 56>       4       2.8214510000      3.8969030000  2
| 57>   end
| 58>   NewGTO 81
| 59>     s 9
| 60>      1    9675.5500000000      0.0000194351
| 61>      2    1471.4800000000      0.0001384751
| 62>      3     323.6480000000      0.0005514712
| 63>      4      33.8079000000      0.0526351289
| 64>      5      21.1316000000     -0.4759098978
| 65>      6      13.2091000000      1.6364846086
| 66>      7       8.2561100000     -1.3888230384
| 67>      8       5.1001400000     -1.4876214055
| 68>      9       1.8194300000      1.8452273768
| 69>     s 1
| 70>      1       0.9680461018      1.0000000000
| 71>     s 3
| 72>      1      13.4329240810      0.3475210054
| 73>      2      11.1269567050     -0.5592101581
| 74>      3       2.0351129325      1.1382506236
| 75>     s 1
| 76>      1       0.4728802702      1.0000000000
| 77>     s 1
| 78>      1       0.2170324177      1.0000000000
| 79>     s 1
| 80>      1       0.0995516643      1.0000000000
| 81>     s 1
| 82>      1       0.0446744752      1.0000000000
| 83>     p 7
| 84>      1      42.5240000000      0.0016380010
| 85>      2      21.3957000000     -0.0236351802
| 86>      3      13.3737000000      0.1140354837
| 87>      4       6.6133700000     -0.3535959307
| 88>      5       2.0421700000      0.4848411404
| 89>      6       1.1144900000      0.4963347022
| 90>      7       0.5980060000      0.2093569340
| 91>     p 3
| 92>      1       9.0557032031     -0.0636983145
| 93>      2       3.9424773914      0.3031427740
| 94>      3       1.2382159385      0.8021593595
| 95>     p 1
| 96>      1       0.2994326074      1.0000000000
| 97>     p 1
| 98>      1       0.1425018236      1.0000000000
| 99>     p 1
|100>      1       0.0616550725      1.0000000000
|101>     p 1
|102>      1       0.0260548705      1.0000000000
|103>   end
|104>   NewAuxGTO 81
|105>     S 1
|106>      1 1310.72 1.0
|107>     S 1
|108>      1  655.36 1.0
|109>     S 1
|110>      1  327.68 1.0
|111>     S 1
|112>      1  163.84 1.0
|113>     S 1
|114>      1   81.82 1.0
|115>     S 1
|116>      1   40.96 1.0
|117>     S 1
|118>      1   20.48 1.0
|119>     S 1
|120>      1   10.24 1.0
|121>     S 1
|122>      1    5.12 1.0
|123>     S 1
|124>      1    2.56 1.0
|125>     S 1
|126>      1    1.28 1.0
|127>     S 1
|128>      1    0.64 1.0
|129>     S 1
|130>      1    0.32 1.0
|131>     S 1
|132>      1    0.16 1.0
|133>     S 1
|134>      1    0.08 1.0
|135>     S 1
|136>      1    0.04 1.0
|137>     S 1
|138>      1    0.02 1.0
|139>     S 1
|140>      1    0.01 1.0
|141>   end
|142> end
|143>
|144> * xyz 0 2
|145> 81  0.0 0.0 0.0
|146> *
|147>
|148>
|149>                          ****END OF INPUT****

CARTESIAN COORDINATES (ANGSTROEM)
---------------------------------
  Tl     0.000000    0.000000    0.000000

 Total Charge           Charge          ....    0
 Multiplicity           Mult            ....    2
 Number of Electrons    NEL             ....   21
 Basis Dimension        Dim             ....   25

ORBITAL ENERGIES
----------------

  NO   OCC          E(Eh)            E(eV)
   0   2.0000      -8.593057      -233.8290
   1   2.0000      -6.120448      -166.5458
   2   2.0000      -6.119714      -166.5259
   3   2.0000      -6.112586      -166.3319
   4   2.0000      -2.067536       -56.2605
   5   2.0000      -1.258297       -34.2400
   6   2.0000      -1.256627       -34.1946
   7   2.0000      -1.241175       -33.7741
   8   2.0000      -0.356967        -9.7136
   9   2.0000      -0.172165        -4.6848
  10   0.3333      -0.190380        -5.1805
  11   0.3333      -0.190314        -5.1787
  12   0.3333      -0.016357        -0.4451
  13   0.0000      -0.015580        -0.4240
  14   0.0000      -0.002029        -0.0552
  15   0.0000       0.008862         0.2412
  16   0.0000       0.351834         9.5739
  17   0.0000       0.352621         9.5953

CleanUpVectors: The p-vectors have cracked symmetry
CleanUpVectors: The p-vectors have cracked symmetry
CleanUpVectors: The p-vectors have cracked symmetry
CleanUpVectors: The p-vectors have cracked symmetry
CleanUpVectors: The p-vectors have cracked symmetry
CleanUpVectors: The p-vectors have cracked symmetry
CleanUpVectors: The p-vectors have cracked symmetry
CleanUpVectors: The p-vectors have cracked symmetry
CleanUpVectors: The p-vectors have cracked symmetry
CleanUpVectors: The p-vectors have cracked symmetry
CleanUpVectors: The p-vectors have cracked symmetry
CleanUpVectors: The p-vectors have cracked symmetry
CleanUpVectors: The p-vectors have cracked symmetry
CleanUpVectors: The p-vectors have cracked symmetry
CleanUpVectors: The p-vectors have cracked symmetry
CleanUpVectors: The p-vectors have cracked symmetry
CleanUpVectors: The p-vectors have cracked symmetry
--------------------------
ATOM BASIS FOR ELEMENT Tl
--------------------------
 NewGTO Tl
 S 17
    1       9675.549999999999         0.000008583707
    2       1471.480000000000         0.000061158917
    3        323.648000000000         0.000243562787
    4         33.807900000000         0.023246832670
    5         21.131600000000        -0.210190380292
    6         13.209100000000         0.722769843227
    7          8.256110000000        -0.613387626415
    8          5.100140000000        -0.657022916307
    9          1.819430000000         0.814963180734
   10          0.968046101800         0.693054501895
   11         13.432924081000         0.024098120674
   12         11.126956705000        -0.038777264288
   13          2.035112932500         0.078929619960
   14          0.472880270200        -0.133253586069
   15          0.217032417700         0.084909838016
   16          0.099551664300        -0.039397251036
   17          0.044674475200         0.010526510619
 P 31
    1         42.524000000000        -0.001368198181
    2         21.395700000000         0.019742118935
    3         13.373700000000        -0.095252164908
    4          6.613370000000         0.295353488310
    5          2.042170000000        -0.404980684618
    6          1.114490000000        -0.414581088005
    7          0.598006000000        -0.174872772535
    8         42.524000000000         0.000979380258
    9         21.395700000000        -0.014131755034
   10         13.373700000000         0.068183170478
   11          6.613370000000        -0.211419207786
   12          2.042170000000         0.289892277896
   13          1.114490000000         0.296764415043
   14          0.598006000000         0.125176998059
   15         42.524000000000         0.000337509023
   16         21.395700000000        -0.004870013258
   17         13.373700000000         0.023496936043
   18          6.613370000000        -0.072858207807
   19          2.042170000000         0.099901196517
   20          1.114490000000         0.102269437329
   21          0.598006000000         0.043137857873
   22          9.055703203100         0.001932867538
   23          3.942477391400        -0.009198592332
   24          1.238215938500        -0.024340797690
   25          9.055703203100        -0.001383580489
   26          3.942477391400         0.006584513745
   27          1.238215938500         0.017423569954
   28          9.055703203100        -0.000476802443
   29          3.942477391400         0.002269121504
   30          1.238215938500         0.006004421707
   31          0.299432607400         0.166840655008
 S 17
    1       9675.549999999999         0.000005452077
    2       1471.480000000000         0.000038846055
    3        323.648000000000         0.000154702763
    4         33.807900000000         0.014765594089
    5         21.131600000000        -0.133505750256
    6         13.209100000000         0.459078717344
    7          8.256110000000        -0.389602869307
    8          5.100140000000        -0.417318515030
    9          1.819430000000         0.517636776355
   10          0.968046101800         1.216206848879
   11         13.432924081000         0.089066166902
   12         11.126956705000        -0.143319984982
   13          2.035112932500         0.291722279928
   14          0.472880270200        -1.509345492108
   15          0.217032417700        -0.421583669652
   16          0.099551664300        -0.044806996880
   17          0.044674475200         0.011995098372
 P 31
    1         42.524000000000        -0.000747163412
    2         21.395700000000         0.010781032422
    3         13.373700000000        -0.052016537914
    4          6.613370000000         0.161290464501
    5          2.042170000000        -0.221157106049
    6          1.114490000000        -0.226399818876
    7          0.598006000000        -0.095496792241
    8         42.524000000000         0.000534832677
    9         21.395700000000        -0.007717252119
   10         13.373700000000         0.037234350270
   11          6.613370000000        -0.115454543714
   12          2.042170000000         0.158308135865
   13          1.114490000000         0.162060961670
   14          0.598006000000         0.068358279012
   15         42.524000000000         0.000184311306
   16         21.395700000000        -0.002659480018
   17         13.373700000000         0.012831511659
   18          6.613370000000        -0.039787355304
   19          2.042170000000         0.054555341406
   20          1.114490000000         0.055848621072
   21          0.598006000000         0.023557281052
   22          9.055703203100         0.009219873347
   23          3.942477391400        -0.043877738435
   24          1.238215938500        -0.116106803719
   25          9.055703203100        -0.006599747069
   26          3.942477391400         0.031408454839
   27          1.238215938500         0.083111286752
   28          9.055703203100        -0.002274371134
   29          3.942477391400         0.010823821324
   30          1.238215938500         0.028641387246
   31          0.299432607400         1.158692547813
 S 17
    1       9675.549999999999         0.000001800371
    2       1471.480000000000         0.000012827641
    3        323.648000000000         0.000051085537
    4         33.807900000000         0.004875855375
    5         21.131600000000        -0.044085915278
    6         13.209100000000         0.151595758233
    7          8.256110000000        -0.128653627692
    8          5.100140000000        -0.137805814821
    9          1.819430000000         0.170932645397
   10          0.968046101800         0.366385999155
   11         13.432924081000         0.056549819084
   12         11.126956705000        -0.090996609642
   13          2.035112932500         0.185220075440
   14          0.472880270200        -0.199257460718
   15          0.217032417700        -2.940856162605
   16          0.099551664300         5.476573807190
   17          0.044674475200        -3.138778652966
 S 17
    1       9675.549999999999        -0.000005720911
    2       1471.480000000000        -0.000040761492
    3        323.648000000000        -0.000162330908
    4         33.807900000000        -0.015493661766
    5         21.131600000000         0.140088703906
    6         13.209100000000        -0.481715149950
    7          8.256110000000         0.408813559676
    8          5.100140000000         0.437895819278
    9          1.819430000000        -0.543160612593
   10          0.968046101800        -3.398617610294
   11         13.432924081000        -0.047859772984
   12         11.126956705000         0.077013103672
   13          2.035112932500        -0.156757190495
   14          0.472880270200         9.517842621833
   15          0.217032417700       -11.103161596052
   16          0.099551664300         7.099419616712
   17          0.044674475200        -2.088762136969
 S 17
    1       9675.549999999999         0.000004025383
    2       1471.480000000000         0.000028680857
    3        323.648000000000         0.000114220292
    4         33.807900000000         0.010901747550
    5         21.131600000000        -0.098570093223
    6         13.209100000000         0.338947437684
    7          8.256110000000        -0.287651963109
    8          5.100140000000        -0.308115005169
    9          1.819430000000         0.382182079821
   10          0.968046101800        11.503017914528
   11         13.432924081000        -1.931739698520
   12         11.126956705000         3.108440771729
   13          2.035112932500        -6.327110828718
   14          0.472880270200       -11.240499905689
   15          0.217032417700         7.188325769881
   16          0.099551664300        -3.389271359448
   17          0.044674475200         0.894436629826
 P 31
    1         42.524000000000        -0.000138992927
    2         21.395700000000         0.002005568295
    3         13.373700000000        -0.009676505474
    4          6.613370000000         0.030004458683
    5          2.042170000000        -0.041141299155
    6          1.114490000000        -0.042116587811
    7          0.598006000000        -0.017765027623
    8         42.524000000000         0.000124357126
    9         21.395700000000        -0.001794384175
   10         13.373700000000         0.008657580169
   11          6.613370000000        -0.026845022428
   12          2.042170000000         0.036809165938
   13          1.114490000000         0.037681757779
   14          0.598006000000         0.015894389898
   15         42.524000000000        -0.000924309461
   16         21.395700000000         0.013337122913
   17         13.373700000000        -0.064349213744
   18          6.613370000000         0.199531052838
   19          2.042170000000        -0.273591562583
   20          1.114490000000        -0.280077277739
   21          0.598006000000        -0.118138264140
   22          9.055703203100         0.001725880775
   23          3.942477391400        -0.008213534215
   24          1.238215938500        -0.021734192302
   25          9.055703203100        -0.001544147441
   26          3.942477391400         0.007348658163
   27          1.238215938500         0.019445605934
   28          9.055703203100         0.011477187829
   29          3.942477391400        -0.054620386483
   30          1.238215938500        -0.144533394805
   31          0.299432607400         0.217989879166
 P 31
    1         42.524000000000        -0.000189398228
    2         21.395700000000         0.002732880655
    3         13.373700000000        -0.013185656500
    4          6.613370000000         0.040885471179
    5          2.042170000000        -0.056061048081
    6          1.114490000000        -0.057390021773
    7          0.598006000000        -0.024207453050
    8         42.524000000000        -0.000262246022
    9         21.395700000000         0.003784022101
   10         13.373700000000        -0.018257224483
   11          6.613370000000         0.056611153594
   12          2.042170000000        -0.077623676872
   13          1.114490000000        -0.079463810584
   14          0.598006000000        -0.033518308662
   15         42.524000000000        -0.000006801994
   16         21.395700000000         0.000098147898
   17         13.373700000000        -0.000473545915
   18          6.613370000000         0.001468349177
   19          2.042170000000        -0.002013360527
   20          1.114490000000        -0.002061088910
   21          0.598006000000        -0.000869379580
   22          9.055703203100         0.002825267748
   23          3.942477391400        -0.013445559889
   24          1.238215938500        -0.035578884386
   25          9.055703203100         0.003911943823
   26          3.942477391400        -0.018617093899
   27          1.238215938500        -0.049263506830
   28          9.055703203100         0.000101465862
   29          3.942477391400        -0.000482880012
   30          1.238215938500        -0.001277769929
   31          0.299432607400         0.470249635680
 P 31
    1         42.524000000000        -0.000030729544
    2         21.395700000000         0.000443405291
    3         13.373700000000        -0.002139350594
    4          6.613370000000         0.006633598946
    5          2.042170000000        -0.009095810779
    6          1.114490000000        -0.009311434526
    7          0.598006000000        -0.003927618550
    8         42.524000000000         0.000027493757
    9         21.395700000000        -0.000396715205
   10         13.373700000000         0.001914079347
   11          6.613370000000        -0.005935088327
   12          2.042170000000         0.008138031982
   13          1.114490000000         0.008330950787
   14          0.598006000000         0.003514044669
   15         42.524000000000        -0.000204352904
   16         21.395700000000         0.002948665911
   17         13.373700000000        -0.014226781459
   18          6.613370000000         0.044113743087
   19          2.042170000000        -0.060487566876
   20          1.114490000000        -0.061921474872
   21          0.598006000000        -0.026118846961
   22          9.055703203100         0.000468731609
   23          3.942477391400        -0.002230712087
   24          1.238215938500        -0.005902784868
   25          9.055703203100        -0.000419374690
   26          3.942477391400         0.001995820576
   27          1.238215938500         0.005281228161
   28          9.055703203100         0.003117087109
   29          3.942477391400        -0.014834339657
   30          1.238215938500        -0.039253795303
   31          0.299432607400         0.060292578457
 P 31
    1         42.524000000000        -0.000098778487
    2         21.395700000000         0.001425302751
    3         13.373700000000        -0.006876828831
    4          6.613370000000         0.021323351397
    5          2.042170000000        -0.029238000527
    6          1.114490000000        -0.029931111606
    7          0.598006000000        -0.012625121172
    8         42.524000000000         0.000088377221
    9         21.395700000000        -0.001275219950
   10         13.373700000000         0.006152706374
   11          6.613370000000        -0.019078026121
   12          2.042170000000         0.026159271468
   13          1.114490000000         0.026779398718
   14          0.598006000000         0.011295709901
   15         42.524000000000        -0.000656881554
   16         21.395700000000         0.009478329921
   17         13.373700000000        -0.045731233190
   18          6.613370000000         0.141801283577
   19          2.042170000000        -0.194434070278
   20          1.114490000000        -0.199043291353
   21          0.598006000000        -0.083957645972
   22          9.055703203100         0.001658851626
   23          3.942477391400        -0.007894539874
   24          1.238215938500        -0.020890087417
   25          9.055703203100        -0.001484176388
   26          3.942477391400         0.007063253572
   27          1.238215938500         0.018690384358
   28          9.055703203100         0.011031440861
   29          3.942477391400        -0.052499059201
   30          1.238215938500        -0.138920057856
   31          0.299432607400         0.426819210704
 P 31
    1         42.524000000000        -0.000880908705
    2         21.395700000000         0.012710881114
    3         13.373700000000        -0.061327709957
    4          6.613370000000         0.190162114251
    5          2.042170000000        -0.260745128350
    6          1.114490000000        -0.266926308115
    7          0.598006000000        -0.112591106814
    8         42.524000000000         0.000788149994
    9         21.395700000000        -0.011372439407
   10         13.373700000000         0.054869970005
   11          6.613370000000        -0.170138254182
   12          2.042170000000         0.233288955052
   13          1.114490000000         0.238819263432
   14          0.598006000000         0.100735387936
   15         42.524000000000        -0.005858084054
   16         21.395700000000         0.084527953433
   17         13.373700000000        -0.407832137278
   18          6.613370000000         1.264586946721
   19          2.042170000000        -1.733967289073
   20          1.114490000000        -1.775072423385
   21          0.598006000000        -0.748736122098
   22          9.055703203100        -0.030888073232
   23          3.942477391400         0.146997550511
   24          1.238215938500         0.388976650870
   25          9.055703203100         0.027635593323
   26          3.942477391400        -0.131518871209
   27          1.238215938500        -0.348017840238
   28          9.055703203100        -0.205407130505
   29          3.942477391400         0.977540580617
   30          1.238215938500         2.586712906549
   31          0.299432607400         0.192677770358
 end
  // -----------------------------------------------
  // The basis set
  // -----------------------------------------------
  BAS[ATNO] = new BFNGauss[NSH];
  // Basis function   1 L = s
  InitBFNGauss(BAS[ATNO][  0]);
  BAS[ATNO][  0].l  = 0;
  BAS[ATNO][  0].ng = 17;
  BAS[ATNO][  0].a[  0] =      9675.549999999999;     BAS[ATNO][  0].d[  0] =         0.000008583707;
  BAS[ATNO][  0].a[  1] =      1471.480000000000;     BAS[ATNO][  0].d[  1] =         0.000061158917;
  BAS[ATNO][  0].a[  2] =       323.648000000000;     BAS[ATNO][  0].d[  2] =         0.000243562787;
  BAS[ATNO][  0].a[  3] =        33.807900000000;     BAS[ATNO][  0].d[  3] =         0.023246832670;
  BAS[ATNO][  0].a[  4] =        21.131600000000;     BAS[ATNO][  0].d[  4] =        -0.210190380292;
  BAS[ATNO][  0].a[  5] =        13.209100000000;     BAS[ATNO][  0].d[  5] =         0.722769843227;
  BAS[ATNO][  0].a[  6] =         8.256110000000;     BAS[ATNO][  0].d[  6] =        -0.613387626415;
  BAS[ATNO][  0].a[  7] =         5.100140000000;     BAS[ATNO][  0].d[  7] =        -0.657022916307;
  BAS[ATNO][  0].a[  8] =         1.819430000000;     BAS[ATNO][  0].d[  8] =         0.814963180734;
  BAS[ATNO][  0].a[  9] =         0.968046101800;     BAS[ATNO][  0].d[  9] =         0.693054501895;
  BAS[ATNO][  0].a[ 10] =        13.432924081000;     BAS[ATNO][  0].d[ 10] =         0.024098120674;
  BAS[ATNO][  0].a[ 11] =        11.126956705000;     BAS[ATNO][  0].d[ 11] =        -0.038777264288;
  BAS[ATNO][  0].a[ 12] =         2.035112932500;     BAS[ATNO][  0].d[ 12] =         0.078929619960;
  BAS[ATNO][  0].a[ 13] =         0.472880270200;     BAS[ATNO][  0].d[ 13] =        -0.133253586069;
  BAS[ATNO][  0].a[ 14] =         0.217032417700;     BAS[ATNO][  0].d[ 14] =         0.084909838016;
  BAS[ATNO][  0].a[ 15] =         0.099551664300;     BAS[ATNO][  0].d[ 15] =        -0.039397251036;
  BAS[ATNO][  0].a[ 16] =         0.044674475200;     BAS[ATNO][  0].d[ 16] =         0.010526510619;

FINAL SINGLE POINT ENERGY      -157.281482410243

DIPOLE MOMENT
-------------
                                X             Y             Z
Electronic contribution:      0.00000       0.00000       0.00000
Nuclear contribution   :      0.00000       0.00000       0.00000
                        -----------------------------------------
Total Dipole Moment    :      0.00000       0.00000       0.00000
                        -----------------------------------------
Magnitude (a.u.)       :      0.00000
Magnitude (Debye)      :      0.00000

Rotational constants in cm-1:     0.000000     0.000000     0.000000
Rotational constants in MHz :     0.000000     0.000000     0.000000

                             ****ORCA TERMINATED NORMALLY****
TOTAL RUN TIME: 0 days 0 hours 0 minutes 1 seconds 953 msec
