                         Program Version 4.2.0 -  RELEASE  -
|  1> # input to generate an atomic fitting density for Pb
|  2> # this file is use internally by ORCA
|  3> #
|  4> # atomic ground state (S=3): 1s2 2s2 2p6 3s2 3p6 4s2 3d10 4p6 5s2 4d10 5p6 6s2 4f14 5d10 6p2
|  5> #
|  6> ! RHF AllowRHF def2-SVP def2/J  NoMulliken NoLoewdin NoMayer NoPrintMOs
|  7>
|  8> %output print[p_atomdensfit] 2 end
|  9>
| 10> %scf
| 11>   guess hcore
| 12>   maxiter 1000
| 13>   maxdisk 500000
| 14>   SCFMode Conventional
| 15>   lshift 1.000000
| 16>   hftyp rohf
| 17>   rohf_case sahf
| 18>   rohf_numop   2
| 19>   rohf_norb[1] 3
| 20>   rohf_nel[1]  2
| 21> end
| 22>
| 23> %basis
| 24>   NewECP 82
| 25>     N_core 60
| 26>     lmax f
| 27>     s 4
| 28>       1      12.2963030000    281.2854990000  2
| 29>       2       8.6326340000     62.5202170000  2
| 30>       3       3.8875120000    -12.2098920000  2
| 31>       4       3.8119630000    -16.1902910000  2
| 32>     p 6
| 33>       1      10.2417900000     72.2768970000  2
| 34>       2       8.9241760000    144.5910830000  2
| 35>       3       6.5813420000      4.7586930000  2
| 36>       4       6.2554030000      9.9406210000  2
| 37>       5       3.8875120000    -12.2098920000  2
| 38>       6       3.8119630000    -16.1902910000  2
| 39>     d 6
| 40>       1       7.7543360000     35.8485070000  2
| 41>       2       7.7202810000     53.7243420000  2
| 42>       3       4.9702640000     10.1152560000  2
| 43>       4       4.5637890000     14.8337310000  2
| 44>       5       3.8875120000    -12.2098920000  2
| 45>       6       3.8119630000    -16.1902910000  2
| 46>     f 2
| 47>       1       3.8875120000     12.2098920000  2
| 48>       2       3.8119630000     16.1902910000  2
| 49>   end
| 50>   NewGTO 82
| 51>     s 9
| 52>      1    9368.3300000000      0.0000341361
| 53>      2    1366.9300000000      0.0002511440
| 54>      3     299.6820000000      0.0009241123
| 55>      4      34.8597000000      0.0567487835
| 56>      5      21.7889000000     -0.4960361570
| 57>      6      13.6200000000      1.7048871659
| 58>      7       8.5129500000     -1.4796549163
| 59>      8       5.3033200000     -1.4907515784
| 60>      9       1.9281600000      1.8658460662
| 61>     s 1
| 62>      1       1.0373400312      1.0000000000
| 63>     s 3
| 64>      1      13.5599442130      0.3521198601
| 65>      2      11.0396200450     -0.5903682976
| 66>      3       2.1371722788      1.1586522628
| 67>     s 1
| 68>      1       0.5111168569      1.0000000000
| 69>     s 1
| 70>      1       0.2467398756      1.0000000000
| 71>     s 1
| 72>      1       0.1157797674      1.0000000000
| 73>     s 1
| 74>      1       0.0528741678      1.0000000000
| 75>     p 7
| 76>      1      59.0901000000      0.0007547721
| 77>      2      20.9197000000     -0.0222236107
| 78>      3      13.0777000000      0.1339414763
| 79>      4       6.8991000000     -0.3924435394
| 80>      5       2.1962700000      0.4592545737
| 81>      6       1.3048600000      0.4593304726
| 82>      7       0.7795720000      0.2750775330
| 83>     p 3
| 84>      1       9.1373183134     -0.0614234096
| 85>      2       3.9570574249      0.3028554391
| 86>      3       1.2246639098      0.8025637712
| 87>     p 1
| 88>      1       0.4260156424      1.0000000000
| 89>     p 1
| 90>      1       0.2037858629      1.0000000000
| 91>     p 1
| 92>      1       0.0881686479      1.0000000000
| 93>     p 1
| 94>      1       0.0370947014      1.0000000000
| 95>   end
| 96>   NewAuxGTO 82
| 97>     S 1
| 98>      1 1310.72 1.0
| 99>     S 1
|100>      1  655.36 1.0
|101>     S 1
|102>      1  327.68 1.0
|103>     S 1
|104>      1  163.84 1.0
|105>     S 1
|106>      1   81.82 1.0
|107>     S 1
|108>      1   40.96 1.0
|109>     S 1
|110>      1   20.48 1.0
|111>     S 1
|112>      1   10.24 1.0
|113>     S 1
|114>      1    5.12 1.0
|115>     S 1
|116>      1    2.56 1.0
|117>     S 1
|118>      1    1.28 1.0
|119>     S 1
|120>      1    0.64 1.0
|121>     S 1
|122>      1    0.32 1.0
|123>     S 1
|124>      1    0.16 1.0
|125>     S 1
|126>      1    0.08 1.0
|127>     S 1
|128>      1    0.04 1.0
|129>     S 1
|130>      1    0.02 1.0
|131>     S 1
|132>      1    0.01 1.0
|133>   end
|134> end
|135>
|136> * xyz 0 3
|137> 82  0.0 0.0 0.0
|138> *
|139>
|140>
|141>                          ****END OF INPUT****

CARTESIAN COORDINATES (ANGSTROEM)
---------------------------------
  Pb     0.000000    0.000000    0.000000

 Total Charge           Charge          ....    0
 Multiplicity           Mult            ....    3
 Number of Electrons    NEL             ....   22
 Basis Dimension        Dim             ....   25

ORBITAL ENERGIES
----------------

  NO   OCC          E(Eh)            E(eV)
   0   2.0000      -9.275806      -252.4075
   1   2.0000      -6.650103      -180.9585
   2   2.0000      -6.647700      -180.8931
   3   2.0000      -6.642019      -180.7385
   4   2.0000      -2.308850       -62.8270
   5   2.0000      -1.455982       -39.6193
   6   2.0000      -1.451487       -39.4970
   7   2.0000      -1.441443       -39.2236
   8   2.0000      -0.422807       -11.5052
   9   2.0000      -0.213315        -5.8046
  10   0.6667      -0.245675        -6.6852
  11   0.6667      -0.245663        -6.6848
  12   0.6667       0.016383         0.4458
  13   0.0000       0.077309         2.1037
  14   0.0000       0.094529         2.5723
  15   0.0000       0.086059         2.3418
  16   0.0000       0.735355        20.0100
  17   0.0000       0.735966        20.0266

CleanUpVectors: The p-vectors have cracked symmetry
CleanUpVectors: The p-vectors have cracked symmetry
CleanUpVectors: The p-vectors have cracked symmetry
CleanUpVectors: The p-vectors have cracked symmetry
CleanUpVectors: The p-vectors have cracked symmetry
CleanUpVectors: The p-vectors have cracked symmetry
CleanUpVectors: The p-vectors have cracked symmetry
CleanUpVectors: The p-vectors have cracked symmetry
CleanUpVectors: The p-vectors have cracked symmetry
CleanUpVectors: The p-vectors have cracked symmetry
CleanUpVectors: The p-vectors have cracked symmetry
CleanUpVectors: The p-vectors have cracked symmetry
CleanUpVectors: The p-vectors have cracked symmetry
CleanUpVectors: The p-vectors have cracked symmetry
CleanUpVectors: The p-vectors have cracked symmetry
CleanUpVectors: The p-vectors have cracked symmetry
CleanUpVectors: The p-vectors have cracked symmetry
--------------------------
ATOM BASIS FOR ELEMENT Pb
--------------------------
 NewGTO Pb
 S 17
    1       9368.330000000000         0.000014974230
    2       1366.930000000000         0.000110167474
    3        299.682000000000         0.000405373481
    4         34.859700000000         0.024893567490
    5         21.788900000000        -0.217592497851
    6         13.620000000000         0.747870194031
    7          8.512950000000        -0.649069235481
    8          5.303320000000        -0.653936925850
    9          1.928160000000         0.818476839683
   10          1.037340031200         0.710015258237
   11         13.559944213000         0.024745785120
   12         11.039620045000        -0.041489074289
   13          2.137172278800         0.081426136874
   14          0.511116856900        -0.154947673307
   15          0.246739875600         0.103729609144
   16          0.115779767400        -0.046765060327
   17          0.052874167800         0.012128815900
 P 31
    1         59.090100000000        -0.000085336252
    2         20.919700000000         0.002512652027
    3         13.077700000000        -0.015143728282
    4          6.899100000000         0.044370560119
    5          2.196270000000        -0.051924367779
    6          1.304860000000        -0.051932949081
    7          0.779572000000        -0.031100892205
    8         59.090100000000         0.000030151205
    9         20.919700000000        -0.000887776110
   10         13.077700000000         0.005350617611
   11          6.899100000000        -0.015677110415
   12          2.196270000000         0.018346039462
   13          1.304860000000         0.018349071428
   14          0.779572000000         0.010988640211
   15         59.090100000000        -0.000780443598
   16         20.919700000000         0.022979485724
   17         13.077700000000        -0.138497127404
   18          6.899100000000         0.405791427545
   19          2.196270000000        -0.474874855510
   20          1.304860000000        -0.474953335902
   21          0.779572000000        -0.284433539083
   22          9.137318313400         0.000335653047
   23          3.957057424900        -0.001654977340
   24          1.224663909800        -0.004385672780
   25          9.137318313400        -0.000118593722
   26          3.957057424900         0.000584740477
   27          1.224663909800         0.001549556198
   28          9.137318313400         0.003069718500
   29          3.957057424900        -0.015135612797
   30          1.224663909800        -0.040109216865
   31          0.426015642400         0.020291288114
 S 17
    1       9368.330000000000         0.000009610685
    2       1366.930000000000         0.000070707136
    3        299.682000000000         0.000260174777
    4         34.859700000000         0.015977064810
    5         21.788900000000        -0.139654127185
    6         13.620000000000         0.479994302317
    7          8.512950000000        -0.416582365933
    8          5.303320000000        -0.419706522586
    9          1.928160000000         0.525310706004
   10          1.037340031200         1.286752578384
   11         13.559944213000         0.093849715828
   12         11.039620045000        -0.157349537024
   13          2.137172278800         0.308812986511
   14          0.511116856900        -1.613790573084
   15          0.246739875600        -0.344526801674
   16          0.115779767400        -0.090194040916
   17          0.052874167800         0.022562783688
 P 31
    1         59.090100000000        -0.000053829054
    2         20.919700000000         0.001584949871
    3         13.077700000000        -0.009552476796
    4          6.899100000000         0.027988401409
    5          2.196270000000        -0.032753250002
    6          1.304860000000        -0.032758662981
    7          0.779572000000        -0.019618058750
    8         59.090100000000         0.000019019008
    9         20.919700000000        -0.000559998207
   10         13.077700000000         0.003375103516
   11          6.899100000000        -0.009888927660
   12          2.196270000000         0.011572455145
   13          1.304860000000         0.011574367672
   14          0.779572000000         0.006931498551
   15         59.090100000000        -0.000492294184
   16         20.919700000000         0.014495175830
   17         13.077700000000        -0.087362277720
   18          6.899100000000         0.255968221535
   19          2.196270000000        -0.299545194811
   20          1.304860000000        -0.299594699274
   21          0.779572000000        -0.179417164095
   22          9.137318313400         0.001726109769
   23          3.957057424900        -0.008510789868
   24          1.224663909800        -0.022553504842
   25          9.137318313400        -0.000609873154
   26          3.957057424900         0.003007052246
   27          1.224663909800         0.007968657252
   28          9.137318313400         0.015786155176
   29          3.957057424900        -0.077835518881
   30          1.224663909800        -0.206263317417
   31          0.426015642400         0.136276578130
 S 17
    1       9368.330000000000        -0.000003096007
    2       1366.930000000000        -0.000022777748
    3        299.682000000000        -0.000083813257
    4         34.859700000000        -0.005146885718
    5         21.788900000000         0.044988478247
    6         13.620000000000        -0.154626387803
    7          8.512950000000         0.134198731434
    8          5.303320000000         0.135205153919
    9          1.928160000000        -0.169224710692
   10          1.037340031200        -0.372449557043
   11         13.559944213000        -0.061225770150
   12         11.039620045000         0.102651846114
   13          2.137172278800        -0.201463720636
   14          0.511116856900         0.073003736231
   15          0.246739875600         3.379208410463
   16          0.115779767400        -5.947425416748
   17          0.052874167800         3.313748502526
 S 17
    1       9368.330000000000        -0.000010329902
    2       1366.930000000000        -0.000075998516
    3        299.682000000000        -0.000279645000
    4         34.859700000000        -0.017172711099
    5         21.788900000000         0.150105166907
    6         13.620000000000        -0.515914755373
    7          8.512950000000         0.447757376234
    8          5.303320000000         0.451115329668
    9          1.928160000000        -0.564622419630
   10          1.037340031200        -3.714962875200
   11         13.559944213000        -0.055218101487
   12         11.039620045000         0.092579318197
   13          2.137172278800        -0.181695455115
   14          0.511116856900        10.850689338114
   15          0.246739875600       -12.724652019975
   16          0.115779767400         7.892475200883
   17          0.052874167800        -2.270316119500
 S 17
    1       9368.330000000000         0.000013599289
    2       1366.930000000000         0.000100051848
    3        299.682000000000         0.000368151910
    4         34.859700000000         0.022607829202
    5         21.788900000000        -0.197613059242
    6         13.620000000000         0.679200424731
    7          8.512950000000        -0.589471413538
    8          5.303320000000        -0.593892150442
    9          1.928160000000         0.743323937204
   10          1.037340031200        12.136706571053
   11         13.559944213000        -2.034709433607
   12         11.039620045000         3.411417760101
   13          2.137172278800        -6.695222157364
   14          0.511116856900       -12.584351574668
   15          0.246739875600         8.407119634518
   16          0.115779767400        -3.852809757338
   17          0.052874167800         0.988911602630
 P 31
    1         59.090100000000        -0.000197937409
    2         20.919700000000         0.005828095555
    3         13.077700000000        -0.035125872805
    4          6.899100000000         0.102917499708
    5          2.196270000000        -0.120438554109
    6          1.304860000000        -0.120458458437
    7          0.779572000000        -0.072138509314
    8         59.090100000000        -0.000458379410
    9         20.919700000000         0.013496584665
   10         13.077700000000        -0.081343778895
   11          6.899100000000         0.238334244027
   12          2.196270000000        -0.278909143991
   13          1.304860000000        -0.278955238028
   14          0.779572000000        -0.167056886646
   15         59.090100000000         0.000003934359
   16         20.919700000000        -0.000115843788
   17         13.077700000000         0.000698189337
   18          6.899100000000        -0.002045668766
   19          2.196270000000         0.002393930955
   20          1.304860000000         0.002394326589
   21          0.779572000000         0.001433881465
   22          9.137318313400         0.006383774671
   23          3.957057424900        -0.031475961586
   24          1.224663909800        -0.083410971611
   25          9.137318313400         0.014783415012
   26          3.957057424900        -0.072891389035
   27          1.224663909800        -0.193161424625
   28          9.137318313400        -0.000126888901
   29          3.957057424900         0.000625640845
   30          1.224663909800         0.001657941748
   31          0.426015642400         0.507395173818
 P 31
    1         59.090100000000        -0.000183973390
    2         20.919700000000         0.005416937110
    3         13.077700000000        -0.032647825026
    4          6.899100000000         0.095656911966
    5          2.196270000000        -0.111941897154
    6          1.304860000000        -0.111960397279
    7          0.779572000000        -0.067049307012
    8         59.090100000000         0.000079642465
    9         20.919700000000        -0.002345003401
   10         13.077700000000         0.014133311718
   11          6.899100000000        -0.041410077200
   12          2.196270000000         0.048459881339
   13          1.304860000000         0.048467890081
   14          0.779572000000         0.029025785200
   15         59.090100000000         0.000023193112
   16         20.919700000000        -0.000682901097
   17         13.077700000000         0.004115837985
   18          6.899100000000        -0.012059252078
   19          2.196270000000         0.014112263590
   20          1.304860000000         0.014114595859
   21          0.779572000000         0.008452755565
   22          9.137318313400         0.007305363139
   23          3.957057424900        -0.036019963327
   24          1.224663909800        -0.095452529075
   25          9.137318313400        -0.003162506978
   26          3.957057424900         0.015593117439
   27          1.224663909800         0.041321599419
   28          9.137318313400        -0.000920970726
   29          3.957057424900         0.004540955888
   30          1.224663909800         0.012033485986
   31          0.426015642400         0.723639551716
 P 31
    1         59.090100000000        -0.000056390010
    2         20.919700000000         0.001660354998
    3         13.077700000000        -0.010006942736
    4          6.899100000000         0.029319969695
    5          2.196270000000        -0.034311509379
    6          1.304860000000        -0.034317179885
    7          0.779572000000        -0.020551401976
    8         59.090100000000        -0.000130586833
    9         20.919700000000         0.003845016197
   10         13.077700000000        -0.023173873625
   11          6.899100000000         0.067898587042
   12          2.196270000000        -0.079457892706
   13          1.304860000000        -0.079471024348
   14          0.779572000000        -0.047592516993
   15         59.090100000000         0.000001120852
   16         20.919700000000        -0.000033002515
   17         13.077700000000         0.000198905825
   18          6.899100000000        -0.000582786663
   19          2.196270000000         0.000682002412
   20          1.304860000000         0.000682115123
   21          0.779572000000         0.000408495749
   22          9.137318313400         0.002217714455
   23          3.957057424900        -0.010934705340
   24          1.224663909800        -0.028976855692
   25          9.137318313400         0.005135737843
   26          3.957057424900        -0.025322367315
   27          1.224663909800        -0.067104010642
   28          9.137318313400        -0.000044081028
   29          3.957057424900         0.000217346761
   30          1.224663909800         0.000575966660
   31          0.426015642400         0.160039525610
 P 31
    1         59.090100000000        -0.000190284980
    2         20.919700000000         0.005602776410
    3         13.077700000000        -0.033767876601
    4          6.899100000000         0.098938621384
    5          2.196270000000        -0.115782296876
    6          1.304860000000        -0.115801431686
    7          0.779572000000        -0.069349573012
    8         59.090100000000        -0.000440658071
    9         20.919700000000         0.012974795190
   10         13.077700000000        -0.078198959019
   11          6.899100000000         0.229120038859
   12          2.196270000000        -0.268126278581
   13          1.304860000000        -0.268170590583
   14          0.779572000000        -0.160598324912
   15         59.090100000000         0.000003782253
   16         20.919700000000        -0.000111365169
   17         13.077700000000         0.000671196741
   18          6.899100000000        -0.001966581466
   19          2.196270000000         0.002301379542
   20          1.304860000000         0.002301759880
   21          0.779572000000         0.001378446385
   22          9.137318313400         0.009225033522
   23          3.957057424900        -0.045485126861
   24          1.224663909800        -0.120535114230
   25          9.137318313400         0.021363144234
   26          3.957057424900        -0.105333527880
   27          1.224663909800        -0.279132755947
   28          9.137318313400        -0.000183363986
   29          3.957057424900         0.000904097977
   30          1.224663909800         0.002395850259
   31          0.426015642400         1.443084260673
 P 31
    1         59.090100000000        -0.001170998539
    2         20.919700000000         0.034479037646
    3         13.077700000000        -0.207804810211
    4          6.899100000000         0.608860358092
    5          2.196270000000        -0.712514989102
    6          1.304860000000        -0.712632743190
    7          0.779572000000        -0.426771722377
    8         59.090100000000        -0.002711774501
    9         20.919700000000         0.079845851248
   10         13.077700000000        -0.481230135683
   11          6.899100000000         1.409986383085
   12          2.196270000000        -1.650027660735
   13          1.304860000000        -1.650300353249
   14          0.779572000000        -0.988309239122
   15         59.090100000000         0.000023275683
   16         20.919700000000        -0.000685332335
   17         13.077700000000         0.004130491030
   18          6.899100000000        -0.012102184955
   19          2.196270000000         0.014162505518
   20          1.304860000000         0.014164846091
   21          0.779572000000         0.008482848734
   22          9.137318313400        -0.085877343125
   23          3.957057424900         0.423428471820
   24          1.224663909800         1.122081056847
   25          9.137318313400        -0.198872997417
   26          3.957057424900         0.980567007757
   27          1.224663909800         2.598492396236
   28          9.137318313400         0.001706965277
   29          3.957057424900        -0.008416395669
   30          1.224663909800        -0.022303361196
   31          0.426015642400         0.435448505702
 end
  // -----------------------------------------------
  // The basis set
  // -----------------------------------------------
  BAS[ATNO] = new BFNGauss[NSH];
  // Basis function   1 L = s
  InitBFNGauss(BAS[ATNO][  0]);
  BAS[ATNO][  0].l  = 0;
  BAS[ATNO][  0].ng = 17;
  BAS[ATNO][  0].a[  0] =      9368.330000000000;     BAS[ATNO][  0].d[  0] =         0.000014974230;
  BAS[ATNO][  0].a[  1] =      1366.930000000000;     BAS[ATNO][  0].d[  1] =         0.000110167474;
  BAS[ATNO][  0].a[  2] =       299.682000000000;     BAS[ATNO][  0].d[  2] =         0.000405373481;
  BAS[ATNO][  0].a[  3] =        34.859700000000;     BAS[ATNO][  0].d[  3] =         0.024893567490;
  BAS[ATNO][  0].a[  4] =        21.788900000000;     BAS[ATNO][  0].d[  4] =        -0.217592497851;
  BAS[ATNO][  0].a[  5] =        13.620000000000;     BAS[ATNO][  0].d[  5] =         0.747870194031;
  BAS[ATNO][  0].a[  6] =         8.512950000000;     BAS[ATNO][  0].d[  6] =        -0.649069235481;
  BAS[ATNO][  0].a[  7] =         5.303320000000;     BAS[ATNO][  0].d[  7] =        -0.653936925850;
  BAS[ATNO][  0].a[  8] =         1.928160000000;     BAS[ATNO][  0].d[  8] =         0.818476839683;
  BAS[ATNO][  0].a[  9] =         1.037340031200;     BAS[ATNO][  0].d[  9] =         0.710015258237;
  BAS[ATNO][  0].a[ 10] =        13.559944213000;     BAS[ATNO][  0].d[ 10] =         0.024745785120;
  BAS[ATNO][  0].a[ 11] =        11.039620045000;     BAS[ATNO][  0].d[ 11] =        -0.041489074289;
  BAS[ATNO][  0].a[ 12] =         2.137172278800;     BAS[ATNO][  0].d[ 12] =         0.081426136874;
  BAS[ATNO][  0].a[ 13] =         0.511116856900;     BAS[ATNO][  0].d[ 13] =        -0.154947673307;
  BAS[ATNO][  0].a[ 14] =         0.246739875600;     BAS[ATNO][  0].d[ 14] =         0.103729609144;
  BAS[ATNO][  0].a[ 15] =         0.115779767400;     BAS[ATNO][  0].d[ 15] =        -0.046765060327;
  BAS[ATNO][  0].a[ 16] =         0.052874167800;     BAS[ATNO][  0].d[ 16] =         0.012128815900;

FINAL SINGLE POINT ENERGY      -174.383137134398

DIPOLE MOMENT
-------------
                                X             Y             Z
Electronic contribution:      0.00000       0.00000      -0.00000
Nuclear contribution   :      0.00000       0.00000       0.00000
                        -----------------------------------------
Total Dipole Moment    :      0.00000       0.00000      -0.00000
                        -----------------------------------------
Magnitude (a.u.)       :      0.00000
Magnitude (Debye)      :      0.00000

Rotational constants in cm-1:     0.000000     0.000000     0.000000
Rotational constants in MHz :     0.000000     0.000000     0.000000

                             ****ORCA TERMINATED NORMALLY****
TOTAL RUN TIME: 0 days 0 hours 0 minutes 1 seconds 752 msec
