                         Program Version 4.2.0 -  RELEASE  -
|  1> #
|  2> # 82_Pb CCSD(T)/Def2-QZVP
|  3> #
|  4> ! CCSD(T) Def2-QZVP tightscf slowconv
|  5>
|  6> *xyz 0 3
|  7>  Pb 0.0 0.0 0.0
|  8> *
|  9>
| 10> %maxcore 5000
| 11>
| 12> %pal
| 13> nprocs 24
| 14> end
| 15>
| 16>
| 17>                          ****END OF INPUT****

CARTESIAN COORDINATES (ANGSTROEM)
---------------------------------
  Pb     0.000000    0.000000    0.000000

 Total Charge           Charge          ....    0
 Multiplicity           Mult            ....    3
 Number of Electrons    NEL             ....   22
 Basis Dimension        Dim             ....   82

ORBITAL ENERGIES
----------------
                 SPIN UP ORBITALS
  NO   OCC          E(Eh)            E(eV)
   0   1.0000      -6.173850      -167.9990
   1   1.0000      -3.858584      -104.9974
   2   1.0000      -3.853647      -104.8631
   3   1.0000      -3.853647      -104.8631
   4   1.0000      -1.081324       -29.4243
   5   1.0000      -1.078297       -29.3420
   6   1.0000      -1.078297       -29.3420
   7   1.0000      -1.069946       -29.1147
   8   1.0000      -1.069946       -29.1147
   9   1.0000      -0.623219       -16.9587
  10   1.0000      -0.255125        -6.9423
  11   1.0000      -0.255125        -6.9423
  12   0.0000      -0.014783        -0.4023
  13   0.0000       0.109189         2.9712
  14   0.0000       0.120992         3.2924
  15   0.0000       0.120992         3.2924
  16   0.0000       0.132073         3.5939

                 SPIN DOWN ORBITALS
  NO   OCC          E(Eh)            E(eV)
   0   1.0000      -6.169356      -167.8767
   1   1.0000      -3.862192      -105.0956
   2   1.0000      -3.847943      -104.7078
   3   1.0000      -3.847943      -104.7078
   4   1.0000      -1.078415       -29.3452
   5   1.0000      -1.073338       -29.2070
   6   1.0000      -1.073338       -29.2070
   7   1.0000      -1.059182       -28.8218
   8   1.0000      -1.059182       -28.8218
   9   1.0000      -0.503288       -13.6952
  10   0.0000       0.008572         0.2333
  11   0.0000       0.038551         1.0490
  12   0.0000       0.038551         1.0490
  13   0.0000       0.129078         3.5124
  14   0.0000       0.140109         3.8125

E(0)                                       ...   -191.836206495
E(0)                                       ...   -191.836206495
E(CORR)                                    ...     -0.408708273
E(TOT)                                     ...   -192.244914768
E(CCSD(T))                                 ...   -192.254806562

MULLIKEN ATOMIC CHARGES AND SPIN DENSITIES
------------------------------------------
   0 Pb:   -0.000000    2.000000
Sum of atomic charges       :   -0.0000000

LOEWDIN ATOMIC CHARGES AND SPIN DENSITIES
-----------------------------------------
   0 Pb:   -0.000000    2.000000

FINAL SINGLE POINT ENERGY      -192.254806562426

DIPOLE MOMENT
-------------
                                X             Y             Z
Electronic contribution:      0.00000       0.00000       0.00000
Nuclear contribution   :      0.00000       0.00000       0.00000
                        -----------------------------------------
Total Dipole Moment    :      0.00000       0.00000       0.00000
                        -----------------------------------------
Magnitude (a.u.)       :      0.00000
Magnitude (Debye)      :      0.00000

Rotational constants in cm-1:     0.000000     0.000000     0.000000
Rotational constants in MHz :     0.000000     0.000000     0.000000

                             ****ORCA TERMINATED NORMALLY****
TOTAL RUN TIME: 0 days 0 hours 0 minutes 32 seconds 411 msec
