                         Program Version 4.2.0 -  RELEASE  -
|  1> #
|  2> # 83_Bi CCSD(T)/Def2-QZVP
|  3> #
|  4> ! CCSD(T) Def2-QZVP tightscf slowconv
|  5>
|  6> *xyz 0 4
|  7>  Bi 0.0 0.0 0.0
|  8> *
|  9>
| 10> %maxcore 5000
| 11>
| 12> %pal
| 13> nprocs 24
| 14> end
| 15>
| 16>
| 17>                          ****END OF INPUT****

CARTESIAN COORDINATES (ANGSTROEM)
---------------------------------
  Bi     0.000000    0.000000    0.000000

 Total Charge           Charge          ....    0
 Multiplicity           Mult            ....    4
 Number of Electrons    NEL             ....   23
 Basis Dimension        Dim             ....   82

ORBITAL ENERGIES
----------------
                 SPIN UP ORBITALS
  NO   OCC          E(Eh)            E(eV)
   0   1.0000      -6.685400      -181.9190
   1   1.0000      -4.259872      -115.9170
   2   1.0000      -4.259872      -115.9170
   3   1.0000      -4.259872      -115.9170
   4   1.0000      -1.314788       -35.7772
   5   1.0000      -1.314788       -35.7772
   6   1.0000      -1.314788       -35.7772
   7   1.0000      -1.314788       -35.7772
   8   1.0000      -1.314788       -35.7772
   9   1.0000      -0.779747       -21.2180
  10   1.0000      -0.319043        -8.6816
  11   1.0000      -0.319043        -8.6816
  12   1.0000      -0.319043        -8.6816
  13   0.0000       0.113660         3.0929
  14   0.0000       0.152566         4.1515
  15   0.0000       0.152566         4.1515
  16   0.0000       0.152566         4.1515
  17   0.0000       0.223299         6.0763

                 SPIN DOWN ORBITALS
  NO   OCC          E(Eh)            E(eV)
   0   1.0000      -6.673595      -181.5977
   1   1.0000      -4.251351      -115.6851
   2   1.0000      -4.251351      -115.6851
   3   1.0000      -4.251351      -115.6851
   4   1.0000      -1.300975       -35.4013
   5   1.0000      -1.300975       -35.4013
   6   1.0000      -1.300975       -35.4013
   7   1.0000      -1.300975       -35.4013
   8   1.0000      -1.300975       -35.4013
   9   1.0000      -0.576993       -15.7008
  10   0.0000       0.028131         0.7655
  11   0.0000       0.028131         0.7655
  12   0.0000       0.028131         0.7655
  13   0.0000       0.143220         3.8972
  14   0.0000       0.196131         5.3370

E(0)                                       ...   -213.594509800
E(0)                                       ...   -213.594509800
E(CORR)                                    ...     -0.443921343
E(TOT)                                     ...   -214.038431143
E(CCSD(T))                                 ...   -214.048849810

MULLIKEN ATOMIC CHARGES AND SPIN DENSITIES
------------------------------------------
   0 Bi:   -0.000000    3.000000
Sum of atomic charges       :   -0.0000000

LOEWDIN ATOMIC CHARGES AND SPIN DENSITIES
-----------------------------------------
   0 Bi:   -0.000000    3.000000

FINAL SINGLE POINT ENERGY      -214.048849809895

DIPOLE MOMENT
-------------
                                X             Y             Z
Electronic contribution:      0.00000      -0.00000       0.00000
Nuclear contribution   :      0.00000       0.00000       0.00000
                        -----------------------------------------
Total Dipole Moment    :      0.00000      -0.00000       0.00000
                        -----------------------------------------
Magnitude (a.u.)       :      0.00000
Magnitude (Debye)      :      0.00000

Rotational constants in cm-1:     0.000000     0.000000     0.000000
Rotational constants in MHz :     0.000000     0.000000     0.000000

                             ****ORCA TERMINATED NORMALLY****
TOTAL RUN TIME: 0 days 0 hours 0 minutes 23 seconds 831 msec
