                         Program Version 4.2.0 -  RELEASE  -
|  1> # input to generate an atomic fitting density for Bi
|  2> # this file is use internally by ORCA
|  3> #
|  4> # atomic ground state (S=4): 1s2 2s2 2p6 3s2 3p6 4s2 3d10 4p6 5s2 4d10 5p6 6s2 4f14 5d10 6p3
|  5> #
|  6> ! RHF AllowRHF def2-SVP def2/J  NoMulliken NoLoewdin NoMayer NoPrintMOs
|  7>
|  8> %output print[p_atomdensfit] 2 end
|  9>
| 10> %scf
| 11>   guess hcore
| 12>   maxiter 1000
| 13>   maxdisk 500000
| 14>   SCFMode Conventional
| 15>   lshift 1.000000
| 16>   hftyp rohf
| 17>   rohf_case sahf
| 18>   rohf_numop   2
| 19>   rohf_norb[1] 3
| 20>   rohf_nel[1]  3
| 21> end
| 22>
| 23> %basis
| 24>   NewECP 83
| 25>     N_core 60
| 26>     lmax f
| 27>     s 4
| 28>       1      13.0430900000    283.2642270000  2
| 29>       2       8.2216820000     62.4719590000  2
| 30>       3       4.2145460000    -13.7133830000  2
| 31>       4       4.1334000000    -18.1943080000  2
| 32>     p 6
| 33>       1      10.4677770000     72.0014990000  2
| 34>       2       9.1189010000    144.0022770000  2
| 35>       3       6.7547910000      5.0079450000  2
| 36>       4       6.2525920000      9.9915500000  2
| 37>       5       4.2145460000    -13.7133830000  2
| 38>       6       4.1334000000    -18.1943080000  2
| 39>     d 6
| 40>       1       8.0814740000     36.3962590000  2
| 41>       2       7.8905950000     54.5976640000  2
| 42>       3       4.9555560000      9.9842940000  2
| 43>       4       4.7045590000     14.9814850000  2
| 44>       5       4.2145460000    -13.7133830000  2
| 45>       6       4.1334000000    -18.1943080000  2
| 46>     f 2
| 47>       1       4.2145460000     13.7133830000  2
| 48>       2       4.1334000000     18.1943080000  2
| 49>   end
| 50>   NewGTO 83
| 51>     s 9
| 52>      1    8131.0900000000      0.0000712725
| 53>      2    1225.7700000000      0.0004915344
| 54>      3     274.6720000000      0.0016810477
| 55>      4      37.6164000000      0.0496892147
| 56>      5      23.4804000000     -0.3915710667
| 57>      6      14.1065000000      1.5034219296
| 58>      7       8.8130500000     -1.3385784881
| 59>      8       5.5077800000     -1.5652520445
| 60>      9       2.0397700000      1.8965806524
| 61>     s 1
| 62>      1       1.0975227257      1.0000000000
| 63>     s 3
| 64>      1      13.6142844740      0.3533708473
| 65>      2      11.0108817660     -0.6075206553
| 66>      3       2.2630089550      1.1734307253
| 67>     s 1
| 68>      1       0.5234444953      1.0000000000
| 69>     s 1
| 70>      1       0.2673440921      1.0000000000
| 71>     s 1
| 72>      1       0.1283660881      1.0000000000
| 73>     s 1
| 74>      1       0.0600977356      1.0000000000
| 75>     p 7
| 76>      1      99.5914000000      0.0003992118
| 77>      2      19.8964000000     -0.0230481361
| 78>      3      12.4376000000      0.2024280778
| 79>      4       7.7740000000     -0.4379284310
| 80>      5       4.8399500000     -0.0637608178
| 81>      6       2.2547800000      0.6102217862
| 82>      7       1.1804900000      0.6014991236
| 83>     p 3
| 84>      1       9.6213214965     -0.0586233007
| 85>      2       4.1321350830      0.2958305481
| 86>      3       1.2785827783      0.8067261440
| 87>     p 1
| 88>      1       0.5942359626      1.0000000000
| 89>     p 1
| 90>      1       0.2579416886      1.0000000000
| 91>     p 1
| 92>      1       0.1127359536      1.0000000000
| 93>     p 1
| 94>      1       0.0477919747      1.0000000000
| 95>   end
| 96>   NewAuxGTO 83
| 97>     S 1
| 98>      1 1310.72 1.0
| 99>     S 1
|100>      1  655.36 1.0
|101>     S 1
|102>      1  327.68 1.0
|103>     S 1
|104>      1  163.84 1.0
|105>     S 1
|106>      1   81.82 1.0
|107>     S 1
|108>      1   40.96 1.0
|109>     S 1
|110>      1   20.48 1.0
|111>     S 1
|112>      1   10.24 1.0
|113>     S 1
|114>      1    5.12 1.0
|115>     S 1
|116>      1    2.56 1.0
|117>     S 1
|118>      1    1.28 1.0
|119>     S 1
|120>      1    0.64 1.0
|121>     S 1
|122>      1    0.32 1.0
|123>     S 1
|124>      1    0.16 1.0
|125>     S 1
|126>      1    0.08 1.0
|127>     S 1
|128>      1    0.04 1.0
|129>     S 1
|130>      1    0.02 1.0
|131>     S 1
|132>      1    0.01 1.0
|133>   end
|134> end
|135>
|136> * xyz 0 4
|137> 83  0.0 0.0 0.0
|138> *
|139>
|140>
|141>                          ****END OF INPUT****

CARTESIAN COORDINATES (ANGSTROEM)
---------------------------------
  Bi     0.000000    0.000000    0.000000

 Total Charge           Charge          ....    0
 Multiplicity           Mult            ....    4
 Number of Electrons    NEL             ....   23
 Basis Dimension        Dim             ....   25

ORBITAL ENERGIES
----------------

  NO   OCC          E(Eh)            E(eV)
   0   2.0000      -9.963171      -271.1117
   1   2.0000      -7.223477      -196.5608
   2   2.0000      -7.223477      -196.5608
   3   2.0000      -7.216344      -196.3667
   4   2.0000      -2.565906       -69.8219
   5   2.0000      -1.648813       -44.8665
   6   2.0000      -1.648813       -44.8665
   7   2.0000      -1.637203       -44.5505
   8   2.0000      -0.486818       -13.2470
   9   2.0000      -0.240348        -6.5402
  10   1.0000      -0.288513        -7.8508
  11   1.0000      -0.288513        -7.8508
  12   1.0000       0.014411         0.3921
  13   0.0000       0.186477         5.0743
  14   0.0000       0.186477         5.0743
  15   0.0000       0.205975         5.6049
  16   0.0000       1.164629        31.6912
  17   0.0000       1.204164        32.7670

CleanUpVectors: The p-vectors have cracked symmetry
CleanUpVectors: The p-vectors have cracked symmetry
CleanUpVectors: The p-vectors have cracked symmetry
CleanUpVectors: The p-vectors have cracked symmetry
CleanUpVectors: The p-vectors have cracked symmetry
CleanUpVectors: The p-vectors have cracked symmetry
CleanUpVectors: The p-vectors have cracked symmetry
CleanUpVectors: The p-vectors have cracked symmetry
CleanUpVectors: The p-vectors have cracked symmetry
CleanUpVectors: The p-vectors have cracked symmetry
CleanUpVectors: The p-vectors have cracked symmetry
CleanUpVectors: The p-vectors have cracked symmetry
CleanUpVectors: The p-vectors have cracked symmetry
CleanUpVectors: The p-vectors have cracked symmetry
CleanUpVectors: The p-vectors have cracked symmetry
CleanUpVectors: The p-vectors have cracked symmetry
CleanUpVectors: The p-vectors have cracked symmetry
--------------------------
ATOM BASIS FOR ELEMENT Bi
--------------------------
 NewGTO Bi
 S 17
    1       8131.090000000000         0.000030928722
    2       1225.770000000000         0.000213301496
    3        274.672000000000         0.000729491140
    4         37.616400000000         0.021562649210
    5         23.480400000000        -0.169922378592
    6         14.106500000000         0.652410384806
    7          8.813050000000        -0.580876525293
    8          5.507780000000        -0.679241581199
    9          2.039770000000         0.823021727226
   10          1.097522725700         0.708260344386
   11         13.614284474000         0.027420003654
   12         11.010881766000        -0.047140896640
   13          2.263008955000         0.091052997216
   14          0.523444495300        -0.165909848177
   15          0.267344092100         0.121030206311
   16          0.128366088100        -0.053966024500
   17          0.060097735600         0.013879179299
 P 31
    1         99.591400000000         0.000014086632
    2         19.896400000000        -0.000813279117
    3         12.437600000000         0.007142899871
    4          7.774000000000        -0.015452791762
    5          4.839950000000        -0.002249871372
    6          2.254780000000         0.021532354429
    7          1.180490000000         0.021224565578
    8         99.591400000000        -0.000387480593
    9         19.896400000000         0.022370845347
   10         12.437600000000        -0.196479541894
   11          7.774000000000         0.425059499849
   12          4.839950000000         0.061887147318
   13          2.254780000000        -0.592289855781
   14          1.180490000000        -0.583823516672
   15         99.591400000000         0.000000562095
   16         19.896400000000        -0.000032452054
   17         12.437600000000         0.000285021175
   18          7.774000000000        -0.000616608513
   19          4.839950000000        -0.000089776000
   20          2.254780000000         0.000859199635
   21          1.180490000000         0.000846918021
   22          9.621321496500        -0.000145634500
   23          4.132135083000         0.000734914847
   24          1.278582778300         0.002004103445
   25          9.621321496500         0.004005964023
   26          4.132135083000        -0.020215281613
   27          1.278582778300        -0.055126815976
   28          9.621321496500        -0.000005811214
   29          4.132135083000         0.000029325106
   30          1.278582778300         0.000079969190
   31          0.594235962600        -0.002896348637
 S 17
    1       8131.090000000000         0.000020114093
    2       1225.770000000000         0.000138717861
    3        274.672000000000         0.000474415099
    4         37.616400000000         0.014022989193
    5         23.480400000000        -0.110506814604
    6         14.106500000000         0.424286630385
    7          8.813050000000        -0.377765512821
    8          5.507780000000        -0.441735950892
    9          2.039770000000         0.535241503677
   10          1.097522725700         1.273905629588
   11         13.614284474000         0.108195389866
   12         11.010881766000        -0.186011196606
   13          2.263008955000         0.359282028427
   14          0.523444495300        -1.786689492505
   15          0.267344092100        -0.122978824790
   16          0.128366088100        -0.169234244086
   17          0.060097735600         0.045589577916
 P 31
    1         99.591400000000        -0.000270612856
    2         19.896400000000         0.015623591101
    3         12.437600000000        -0.137219491464
    4          7.774000000000         0.296857616061
    5          4.839950000000         0.043221410236
    6          2.254780000000        -0.413649747075
    7          1.180490000000        -0.407736934291
    8         99.591400000000        -0.000016718701
    9         19.896400000000         0.000965239262
   10         12.437600000000        -0.008477541417
   11          7.774000000000         0.018340125796
   12          4.839950000000         0.002670256911
   13          2.254780000000        -0.025555646837
   14          1.180490000000        -0.025190348039
   15         99.591400000000         0.000035547399
   16         19.896400000000        -0.002052297250
   17         12.437600000000         0.018024997142
   18          7.774000000000        -0.038994880566
   19          4.839950000000        -0.005677515546
   20          2.254780000000         0.054336562752
   21          1.180490000000         0.053559862355
   22          9.621321496500         0.020194519877
   23          4.132135083000        -0.101907531860
   24          1.278582778300        -0.277900543909
   25          9.621321496500         0.001247635280
   26          4.132135083000        -0.006295937354
   27          1.278582778300        -0.017168941130
   28          9.621321496500        -0.002652729282
   29          4.132135083000         0.013386458082
   30          1.278582778300         0.036504701017
   31          0.594235962600         0.998995119057
 S 17
    1       8131.090000000000         0.000006684079
    2       1225.770000000000         0.000046097087
    3        274.672000000000         0.000157652043
    4         37.616400000000         0.004659954755
    5         23.480400000000        -0.036722324257
    6         14.106500000000         0.140993940280
    7          8.813050000000        -0.125534589922
    8          5.507780000000        -0.146792493139
    9          2.039770000000         0.177865158128
   10          1.097522725700         0.441968542415
   11         13.614284474000         0.070063485512
   12         11.010881766000        -0.120454233721
   13          2.263008955000         0.232658260435
   14          0.523444495300        -0.364339616431
   15          0.267344092100        -3.154798586760
   16          0.128366088100         6.043821177008
   17          0.060097735600        -3.449267612315
 S 17
    1       8131.090000000000        -0.000020257962
    2       1225.770000000000        -0.000139710058
    3        274.672000000000        -0.000477808413
    4         37.616400000000        -0.014123290378
    5         23.480400000000         0.111297228426
    6         14.106500000000        -0.427321393608
    7          8.813050000000         0.380467527928
    8          5.507780000000         0.444895522564
    9          2.039770000000        -0.539069885517
   10          1.097522725700        -3.549066142741
   11         13.614284474000        -0.061220044162
   12         11.010881766000         0.105250451845
   13          2.263008955000        -0.203292041133
   14          0.523444495300        11.799173903708
   15          0.267344092100       -14.719185363207
   16          0.128366088100         9.168619083013
   17          0.060097735600        -2.662495487069
 S 17
    1       8131.090000000000         0.000031401410
    2       1225.770000000000         0.000216561413
    3        274.672000000000         0.000740640054
    4         37.616400000000         0.021892194183
    5         23.480400000000        -0.172519325985
    6         14.106500000000         0.662381263640
    7          8.813050000000        -0.589754142182
    8          5.507780000000        -0.689622524947
    9          2.039770000000         0.835600082983
   10          1.097522725700        12.152395496286
   11         13.614284474000        -2.060272530584
   12         11.010881766000         3.542052570099
   13          2.263008955000        -6.841501239706
   14          0.523444495300       -13.619637223002
   15          0.267344092100         9.951455478106
   16          0.128366088100        -4.478041477569
   17          0.060097735600         1.129658290436
 P 31
    1         99.591400000000        -0.000035755953
    2         19.896400000000         0.002064337940
    3         12.437600000000        -0.018130748595
    4          7.774000000000         0.039223660924
    5          4.839950000000         0.005710825150
    6          2.254780000000        -0.054655351733
    7          1.180490000000        -0.053874094486
    8         99.591400000000        -0.000001695909
    9         19.896400000000         0.000097911794
   10         12.437600000000        -0.000859943565
   11          7.774000000000         0.001860382909
   12          4.839950000000         0.000270865117
   13          2.254780000000        -0.002592309842
   14          1.180490000000        -0.002555254717
   15         99.591400000000        -0.000272998145
   16         19.896400000000         0.015761303675
   17         12.437600000000        -0.138428998886
   18          7.774000000000         0.299474237694
   19          4.839950000000         0.043602381014
   20          2.254780000000        -0.417295821212
   21          1.180490000000        -0.411330890535
   22          9.621321496500         0.002681815476
   23          4.132135083000        -0.013533235638
   24          1.278582778300        -0.036904961546
   25          9.621321496500         0.000127198827
   26          4.132135083000        -0.000641882978
   27          1.278582778300        -0.001750406721
   28          9.621321496500         0.020475769637
   29          4.132135083000        -0.103326801494
   30          1.278582778300        -0.281770874160
   31          0.594235962600         0.133518808425
 P 31
    1         99.591400000000         0.000005498949
    2         19.896400000000        -0.000317476882
    3         12.437600000000         0.002788348470
    4          7.774000000000        -0.006032251472
    5          4.839950000000        -0.000878274302
    6          2.254780000000         0.008405508772
    7          1.180490000000         0.008285358330
    8         99.591400000000        -0.000119604740
    9         19.896400000000         0.006905272663
   10         12.437600000000        -0.060647900799
   11          7.774000000000         0.131204328614
   12          4.839950000000         0.019102882341
   13          2.254780000000        -0.182823799727
   14          1.180490000000        -0.180210470678
   15         99.591400000000         0.000000022779
   16         19.896400000000        -0.000001315124
   17         12.437600000000         0.000011550520
   18          7.774000000000        -0.000024988140
   19          4.839950000000        -0.000003638184
   20          2.254780000000         0.000034819177
   21          1.180490000000         0.000034321463
   22          9.621321496500        -0.000509401414
   23          4.132135083000         0.002570590496
   24          1.278582778300         0.007009967606
   25          9.621321496500         0.011079722205
   26          4.132135083000        -0.055911561675
   27          1.278582778300        -0.152470117926
   28          9.621321496500        -0.000002110156
   29          4.132135083000         0.000010648474
   30          1.278582778300         0.000029038254
   31          0.594235962600        -0.030018868788
 P 31
    1         99.591400000000        -0.000012544703
    2         19.896400000000         0.000724257181
    3         12.437600000000        -0.006361034503
    4          7.774000000000         0.013761321501
    5          4.839950000000         0.002003599334
    6          2.254780000000        -0.019175412218
    7          1.180490000000        -0.018901314087
    8         99.591400000000        -0.000000594997
    9         19.896400000000         0.000034351604
   10         12.437600000000        -0.000301704624
   11          7.774000000000         0.000652701117
   12          4.839950000000         0.000095030955
   13          2.254780000000        -0.000909492085
   14          1.180490000000        -0.000896491578
   15         99.591400000000        -0.000095779312
   16         19.896400000000         0.005529732871
   17         12.437600000000        -0.048566755723
   18          7.774000000000         0.105068246282
   19          4.839950000000         0.015297561961
   20          2.254780000000        -0.146405047904
   21          1.180490000000        -0.144312297588
   22          9.621321496500         0.001147225302
   23          4.132135083000        -0.005789238850
   24          1.278582778300        -0.015787180749
   25          9.621321496500         0.000054413033
   26          4.132135083000        -0.000274584288
   27          1.278582778300        -0.000748787863
   28          9.621321496500         0.008759111585
   29          4.132135083000        -0.044201072783
   30          1.278582778300        -0.120535763584
   31          0.594235962600         0.052069561650
 P 31
    1         99.591400000000        -0.000044291809
    2         19.896400000000         0.002557147943
    3         12.437600000000        -0.022459019699
    4          7.774000000000         0.048587347000
    5          4.839950000000         0.007074144450
    6          2.254780000000        -0.067702975131
    7          1.180490000000        -0.066735211897
    8         99.591400000000        -0.000002100766
    9         19.896400000000         0.000121285831
   10         12.437600000000        -0.001065233979
   11          7.774000000000         0.002304503654
   12          4.839950000000         0.000335527514
   13          2.254780000000        -0.003211160173
   14          1.180490000000        -0.003165259047
   15         99.591400000000        -0.000338169750
   16         19.896400000000         0.019523927976
   17         12.437600000000        -0.171475523838
   18          7.774000000000         0.370966359635
   19          4.839950000000         0.054011379011
   20          2.254780000000        -0.516914953614
   21          1.180490000000        -0.509526042181
   22          9.621321496500         0.005358425094
   23          4.132135083000        -0.027040200972
   24          1.278582778300        -0.073738284308
   25          9.621321496500         0.000254150740
   26          4.132135083000        -0.001282519952
   27          1.278582778300        -0.003497415605
   28          9.621321496500         0.040911792334
   29          4.132135083000        -0.206453028155
   30          1.278582778300        -0.562994783299
   31          0.594235962600         0.508109350897
 P 31
    1         99.591400000000        -0.000198174882
    2         19.896400000000         0.011441449479
    3         12.437600000000        -0.100488413255
    4          7.774000000000         0.217394413013
    5          4.839950000000         0.031651851256
    6          2.254780000000        -0.302923486186
    7          1.180490000000        -0.298593422227
    8         99.591400000000        -0.000009399458
    9         19.896400000000         0.000542669310
   10         12.437600000000        -0.004766177397
   11          7.774000000000         0.010311042875
   12          4.839950000000         0.001501251071
   13          2.254780000000        -0.014367696992
   14          1.180490000000        -0.014162321543
   15         99.591400000000        -0.001513073233
   16         19.896400000000         0.087355929371
   17         12.437600000000        -0.767233098167
   18          7.774000000000         1.659815133074
   19          4.839950000000         0.241663164093
   20          2.254780000000        -2.312833064876
   21          1.180490000000        -2.279772851473
   22          9.621321496500        -0.027087811462
   23          4.132135083000         0.136693123998
   24          1.278582778300         0.372760411466
   25          9.621321496500        -0.001284778121
   26          4.132135083000         0.006483371135
   27          1.278582778300         0.017680070667
   28          9.621321496500        -0.206816535733
   29          4.132135083000         1.043657528519
   30          1.278582778300         2.846040813046
   31          0.594235962600         0.097577117929
 end
  // -----------------------------------------------
  // The basis set
  // -----------------------------------------------
  BAS[ATNO] = new BFNGauss[NSH];
  // Basis function   1 L = s
  InitBFNGauss(BAS[ATNO][  0]);
  BAS[ATNO][  0].l  = 0;
  BAS[ATNO][  0].ng = 17;
  BAS[ATNO][  0].a[  0] =      8131.090000000000;     BAS[ATNO][  0].d[  0] =         0.000030928722;
  BAS[ATNO][  0].a[  1] =      1225.770000000000;     BAS[ATNO][  0].d[  1] =         0.000213301496;
  BAS[ATNO][  0].a[  2] =       274.672000000000;     BAS[ATNO][  0].d[  2] =         0.000729491140;
  BAS[ATNO][  0].a[  3] =        37.616400000000;     BAS[ATNO][  0].d[  3] =         0.021562649210;
  BAS[ATNO][  0].a[  4] =        23.480400000000;     BAS[ATNO][  0].d[  4] =        -0.169922378592;
  BAS[ATNO][  0].a[  5] =        14.106500000000;     BAS[ATNO][  0].d[  5] =         0.652410384806;
  BAS[ATNO][  0].a[  6] =         8.813050000000;     BAS[ATNO][  0].d[  6] =        -0.580876525293;
  BAS[ATNO][  0].a[  7] =         5.507780000000;     BAS[ATNO][  0].d[  7] =        -0.679241581199;
  BAS[ATNO][  0].a[  8] =         2.039770000000;     BAS[ATNO][  0].d[  8] =         0.823021727226;
  BAS[ATNO][  0].a[  9] =         1.097522725700;     BAS[ATNO][  0].d[  9] =         0.708260344386;
  BAS[ATNO][  0].a[ 10] =        13.614284474000;     BAS[ATNO][  0].d[ 10] =         0.027420003654;
  BAS[ATNO][  0].a[ 11] =        11.010881766000;     BAS[ATNO][  0].d[ 11] =        -0.047140896640;
  BAS[ATNO][  0].a[ 12] =         2.263008955000;     BAS[ATNO][  0].d[ 12] =         0.091052997216;
  BAS[ATNO][  0].a[ 13] =         0.523444495300;     BAS[ATNO][  0].d[ 13] =        -0.165909848177;
  BAS[ATNO][  0].a[ 14] =         0.267344092100;     BAS[ATNO][  0].d[ 14] =         0.121030206311;
  BAS[ATNO][  0].a[ 15] =         0.128366088100;     BAS[ATNO][  0].d[ 15] =        -0.053966024500;
  BAS[ATNO][  0].a[ 16] =         0.060097735600;     BAS[ATNO][  0].d[ 16] =         0.013879179299;

FINAL SINGLE POINT ENERGY      -192.539706982587

DIPOLE MOMENT
-------------
                                X             Y             Z
Electronic contribution:     -0.00000       0.00000       0.00000
Nuclear contribution   :      0.00000       0.00000       0.00000
                        -----------------------------------------
Total Dipole Moment    :     -0.00000       0.00000       0.00000
                        -----------------------------------------
Magnitude (a.u.)       :      0.00000
Magnitude (Debye)      :      0.00000

Rotational constants in cm-1:     0.000000     0.000000     0.000000
Rotational constants in MHz :     0.000000     0.000000     0.000000

                             ****ORCA TERMINATED NORMALLY****
TOTAL RUN TIME: 0 days 0 hours 0 minutes 1 seconds 136 msec
