                         Program Version 4.2.0 -  RELEASE  -
|  1> # input to generate an atomic fitting density for Po
|  2> # this file is use internally by ORCA
|  3> #
|  4> # atomic ground state (S=3): 1s2 2s2 2p6 3s2 3p6 4s2 3d10 4p6 5s2 4d10 5p6 6s2 4f14 5d10 6p4
|  5> #
|  6> ! RHF AllowRHF def2-SVP def2/J  NoMulliken NoLoewdin NoMayer NoPrintMOs
|  7>
|  8> %output print[p_atomdensfit] 2 end
|  9>
| 10> %scf
| 11>   guess hcore
| 12>   maxiter 1000
| 13>   maxdisk 500000
| 14>   SCFMode Conventional
| 15>   lshift 1.000000
| 16>   hftyp rohf
| 17>   rohf_case sahf
| 18>   rohf_numop   2
| 19>   rohf_norb[1] 3
| 20>   rohf_nel[1]  4
| 21> end
| 22>
| 23> %basis
| 24>   NewECP 84
| 25>     N_core 60
| 26>     lmax f
| 27>     s 6
| 28>       1      13.2772270000    283.2447060000  2
| 29>       2       8.3995180000     62.3964610000  2
| 30>       3       5.0132700000    -17.4282950000  2
| 31>       4       4.9846400000    -23.3803530000  2
| 32>       5       1.3267600000     -0.1633920000  2
| 33>       6       1.5287580000     -0.3245660000  2
| 34>     p 8
| 35>       1      10.6656820000     71.9917160000  2
| 36>       2       9.2837530000    143.9718710000  2
| 37>       3       6.8727490000      4.9496150000  2
| 38>       4       6.3261500000      9.7404990000  2
| 39>       5       5.0132700000    -17.4282950000  2
| 40>       6       4.9846400000    -23.3803530000  2
| 41>       7       1.3267600000     -0.1633920000  2
| 42>       8       1.5287580000     -0.3245660000  2
| 43>     d 8
| 44>       1       8.2148660000     36.3783830000  2
| 45>       2       8.0086960000     54.5627150000  2
| 46>       3       5.0552270000      9.8894990000  2
| 47>       4       4.7825530000     14.6938770000  2
| 48>       5       5.0132700000    -17.4282950000  2
| 49>       6       4.9846400000    -23.3803530000  2
| 50>       7       1.3267600000     -0.1633920000  2
| 51>       8       1.5287580000     -0.3245660000  2
| 52>     f 4
| 53>       1       5.0132700000     17.4282950000  2
| 54>       2       4.9846400000     23.3803530000  2
| 55>       3       1.3267600000      0.1633920000  2
| 56>       4       1.5287580000      0.3245660000  2
| 57>   end
| 58>   NewGTO 84
| 59>     s 9
| 60>      1    8913.2900000000      0.0001167204
| 61>      2    1338.9800000000      0.0008220098
| 62>      3     299.5380000000      0.0028832430
| 63>      4      51.1489000000      0.0196164827
| 64>      5      23.0156000000     -0.3708903452
| 65>      6      14.3765000000      1.5850187531
| 66>      7       8.9827900000     -1.5324722084
| 67>      8       5.6129200000     -1.5029543564
| 68>      9       2.1648400000      1.9273423937
| 69>     s 1
| 70>      1       1.1753800000      1.0000000000
| 71>     s 3
| 72>      1      14.7877669070      0.3570618912
| 73>      2      11.9587812040     -0.6121790190
| 74>      3       2.4798455066      1.1751187195
| 75>     s 1
| 76>      1       0.5548147779      1.0000000000
| 77>     s 1
| 78>      1       0.2858173520      1.0000000000
| 79>     s 1
| 80>      1       0.1384943947      1.0000000000
| 81>     s 1
| 82>      1       0.0649545238      1.0000000000
| 83>     p 7
| 84>      1     113.5570000000      0.0004320813
| 85>      2      20.3639000000     -0.0203815095
| 86>      3      12.7274000000      0.1951355081
| 87>      4       7.9498400000     -0.4451475745
| 88>      5       4.9647700000     -0.0355177529
| 89>      6       2.3013000000      0.6319853351
| 90>      7       1.1954500000      0.5696573282
| 91>     p 3
| 92>      1       8.4681300000     -0.4997453257
| 93>      2       7.7962017000      0.5987433400
| 94>      3       0.6687175800      0.9647786408
| 95>     p 1
| 96>      1       0.5915242393      1.0000000000
| 97>     p 1
| 98>      1       0.2444484380      1.0000000000
| 99>     p 1
|100>      1       0.1101892246      1.0000000000
|101>     p 1
|102>      1       0.0481497760      1.0000000000
|103>   end
|104>   NewAuxGTO 84
|105>     S 1
|106>      1 1310.72 1.0
|107>     S 1
|108>      1  655.36 1.0
|109>     S 1
|110>      1  327.68 1.0
|111>     S 1
|112>      1  163.84 1.0
|113>     S 1
|114>      1   81.82 1.0
|115>     S 1
|116>      1   40.96 1.0
|117>     S 1
|118>      1   20.48 1.0
|119>     S 1
|120>      1   10.24 1.0
|121>     S 1
|122>      1    5.12 1.0
|123>     S 1
|124>      1    2.56 1.0
|125>     S 1
|126>      1    1.28 1.0
|127>     S 1
|128>      1    0.64 1.0
|129>     S 1
|130>      1    0.32 1.0
|131>     S 1
|132>      1    0.16 1.0
|133>     S 1
|134>      1    0.08 1.0
|135>     S 1
|136>      1    0.04 1.0
|137>     S 1
|138>      1    0.02 1.0
|139>     S 1
|140>      1    0.01 1.0
|141>   end
|142> end
|143>
|144> * xyz 0 3
|145> 84  0.0 0.0 0.0
|146> *
|147>
|148>
|149>                          ****END OF INPUT****

CARTESIAN COORDINATES (ANGSTROEM)
---------------------------------
  Po     0.000000    0.000000    0.000000

 Total Charge           Charge          ....    0
 Multiplicity           Mult            ....    3
 Number of Electrons    NEL             ....   24
 Basis Dimension        Dim             ....   25

ORBITAL ENERGIES
----------------

  NO   OCC          E(Eh)            E(eV)
   0   2.0000     -10.817921      -294.3706
   1   2.0000      -7.915956      -215.4041
   2   2.0000      -7.915956      -215.4041
   3   2.0000      -7.910660      -215.2600
   4   2.0000      -2.877679       -78.3056
   5   2.0000      -1.874533       -51.0086
   6   2.0000      -1.874533       -51.0086
   7   2.0000      -1.865730       -50.7691
   8   2.0000      -0.573340       -15.6014
   9   2.0000      -0.287422        -7.8211
  10   1.3333      -0.308607        -8.3976
  11   1.3333      -0.308607        -8.3976
  12   1.3333       0.014695         0.3999
  13   0.0000       0.135449         3.6857
  14   0.0000       0.135449         3.6857
  15   0.0000       0.145008         3.9459
  16   0.0000       0.948818        25.8187
  17   0.0000       0.948818        25.8187

CleanUpVectors: The p-vectors have cracked symmetry
CleanUpVectors: The p-vectors have cracked symmetry
CleanUpVectors: The p-vectors have cracked symmetry
CleanUpVectors: The p-vectors have cracked symmetry
CleanUpVectors: The p-vectors have cracked symmetry
CleanUpVectors: The p-vectors have cracked symmetry
CleanUpVectors: The p-vectors have cracked symmetry
CleanUpVectors: The p-vectors have cracked symmetry
CleanUpVectors: The p-vectors have cracked symmetry
CleanUpVectors: The p-vectors have cracked symmetry
CleanUpVectors: The p-vectors have cracked symmetry
CleanUpVectors: The p-vectors have cracked symmetry
CleanUpVectors: The p-vectors have cracked symmetry
CleanUpVectors: The p-vectors have cracked symmetry
CleanUpVectors: The p-vectors have cracked symmetry
CleanUpVectors: The p-vectors have cracked symmetry
CleanUpVectors: The p-vectors have cracked symmetry
--------------------------
ATOM BASIS FOR ELEMENT Po
--------------------------
 NewGTO Po
 S 17
    1       8913.290000000001         0.000050295440
    2       1338.980000000000         0.000354208388
    3        299.538000000000         0.001242404719
    4         51.148900000000         0.008452846561
    5         23.015600000000        -0.159818619209
    6         14.376500000000         0.682992997308
    7          8.982790000000        -0.660350412170
    8          5.612920000000        -0.647631013000
    9          2.164840000000         0.830502071813
   10          1.175380000000         0.721593296173
   11         14.787766907000         0.028075216017
   12         11.958781204000        -0.048134675313
   13          2.479845506600         0.092397740304
   14          0.554814777900        -0.170446544031
   15          0.285817352000         0.126262645787
   16          0.138494394700        -0.056319103456
   17          0.064954523800         0.014275959519
 P 31
    1        113.557000000000        -0.000018323684
    2         20.363900000000         0.000864338117
    3         12.727400000000        -0.008275297644
    4          7.949840000000         0.018877797845
    5          4.964770000000         0.001506235230
    6          2.301300000000        -0.026801204995
    7          1.195450000000        -0.024158001748
    8        113.557000000000        -0.000023280847
    9         20.363900000000         0.001098170183
   10         12.727400000000        -0.010514039537
   11          7.949840000000         0.023984866946
   12          4.964770000000         0.001913721710
   13          2.301300000000        -0.034051817965
   14          1.195450000000        -0.030693540759
   15        113.557000000000        -0.000443429035
   16         20.363900000000         0.020916788323
   17         12.727400000000        -0.200260344665
   18          7.949840000000         0.456838468631
   19          4.964770000000         0.036450554318
   20          2.301300000000        -0.648583142363
   21          1.195450000000        -0.584618217345
   22          8.468130000000         0.003546599736
   23          7.796201700000        -0.004249170253
   24          0.668717580000        -0.006846854782
   25          8.468130000000         0.004506072344
   26          7.796201700000        -0.005398711437
   27          0.668717580000        -0.008699155606
   28          8.468130000000         0.085826917192
   29          7.796201700000        -0.102828965913
   30          0.668717580000        -0.165692348191
   31          0.591524239300         0.010976177566
 S 17
    1       8913.290000000001         0.000034128156
    2       1338.980000000000         0.000240349404
    3        299.538000000000         0.000843038290
    4         51.148900000000         0.005735710115
    5         23.015600000000        -0.108445511713
    6         14.376500000000         0.463447409672
    7          8.982790000000        -0.448083200270
    8          5.612920000000        -0.439452405195
    9          2.164840000000         0.563540234564
   10          1.175380000000         1.320552603876
   11         14.787766907000         0.112786534621
   12         11.958781204000        -0.193371378527
   13          2.479845506600         0.371189341141
   14          0.554814777900        -1.921680313773
   15          0.285817352000        -0.009784513141
   16          0.138494394700        -0.188739483052
   17          0.064954523800         0.049884415739
 P 31
    1        113.557000000000         0.000016852327
    2         20.363900000000        -0.000794933393
    3         12.727400000000         0.007610806818
    4          7.949840000000        -0.017361946208
    5          4.964770000000        -0.001385287376
    6          2.301300000000         0.024649118676
    7          1.195450000000         0.022218159675
    8        113.557000000000         0.000001691374
    9         20.363900000000        -0.000079783007
   10         12.727400000000         0.000763854006
   11          7.949840000000        -0.001742521191
   12          4.964770000000        -0.000139033527
   13          2.301300000000         0.002473893832
   14          1.195450000000         0.002229912108
   15        113.557000000000         0.000389498684
   16         20.363900000000        -0.018372864404
   17         12.727400000000         0.175904450587
   18          7.949840000000        -0.401277247206
   19          4.964770000000        -0.032017395864
   20          2.301300000000         0.569701712579
   21          1.195450000000         0.513516275512
   22          8.468130000000        -0.021009890927
   23          7.796201700000         0.025171885798
   24          0.668717580000         0.040560447431
   25          8.468130000000        -0.002108644949
   26          7.796201700000         0.002526361037
   27          0.668717580000         0.004070824684
   28          8.468130000000        -0.485590215197
   29          7.796201700000         0.581784145576
   30          0.668717580000         0.937451625279
   31          0.591524239300        -0.091397550613
 S 17
    1       8913.290000000001         0.000011487918
    2       1338.980000000000         0.000080904291
    3        299.538000000000         0.000283776095
    4         51.148900000000         0.001930704025
    5         23.015600000000        -0.036503969308
    6         14.376500000000         0.156001569369
    7          8.982790000000        -0.150829805046
    8          5.612920000000        -0.147924583119
    9          2.164840000000         0.189693931091
   10          1.175380000000         0.494949132297
   11         14.787766907000         0.071223630180
   12         11.958781204000        -0.122112197150
   13          2.479845506600         0.234402559213
   14          0.554814777900        -0.594993748578
   15          0.285817352000        -2.843861834561
   16          0.138494394700         5.883479277182
   17          0.064954523800        -3.428895453926
 S 17
    1       8913.290000000001        -0.000032481909
    2       1338.980000000000        -0.000228755619
    3        299.538000000000        -0.000802372473
    4         51.148900000000        -0.005459035448
    5         23.015600000000         0.103214402536
    6         14.376500000000        -0.441091998555
    7          8.982790000000         0.426468915784
    8          5.612920000000         0.418254446204
    9          2.164840000000        -0.536356624597
   10          1.175380000000        -3.432214260734
   11         14.787766907000        -0.069767340733
   12         11.958781204000         0.119615403550
   13          2.479845506600        -0.229609796300
   14          0.554814777900        11.870698993632
   15          0.285817352000       -15.193005110104
   16          0.138494394700         9.583681704723
   17          0.064954523800        -2.782786839127
 S 17
    1       8913.290000000001         0.000040607047
    2       1338.980000000000         0.000285977352
    3        299.538000000000         0.001003080739
    4         51.148900000000         0.006824577726
    5         23.015600000000        -0.129032815280
    6         14.376500000000         0.551428298499
    7          8.982790000000        -0.533147346504
    8          5.612920000000        -0.522878080685
    9          2.164840000000         0.670522752305
   10          1.175380000000        11.783609932053
   11         14.787766907000        -1.999408039502
   12         11.958781204000         3.427964961731
   13          2.479845506600        -6.580208846262
   14          0.554814777900       -13.551863797165
   15          0.285817352000        10.166628997407
   16          0.138494394700        -4.594163080299
   17          0.064954523800         1.146213610652
 P 31
    1        113.557000000000         0.000391250205
    2         20.363900000000        -0.018455484594
    3         12.727400000000         0.176695468184
    4          7.949840000000        -0.403081734602
    5          4.964770000000        -0.032161373594
    6          2.301300000000         0.572263581132
    7          1.195450000000         0.515825486049
    8        113.557000000000         0.000015793281
    9         20.363900000000        -0.000744977638
   10         12.727400000000         0.007132523223
   11          7.949840000000        -0.016270874756
   12          4.964770000000        -0.001298232187
   13          2.301300000000         0.023100101684
   14          1.195450000000         0.020821910692
   15        113.557000000000        -0.000016996690
   16         20.363900000000         0.000801743115
   17         12.727400000000        -0.007676004080
   18          7.949840000000         0.017510675690
   19          4.964770000000         0.001397154310
   20          2.301300000000        -0.024860273037
   21          1.195450000000        -0.022408489454
   22          8.468130000000        -0.489000512734
   23          7.796201700000         0.585870012582
   24          0.668717580000         0.944035343132
   25          8.468130000000        -0.019739088665
   26          7.796201700000         0.023649341510
   27          0.668717580000         0.038107112069
   28          8.468130000000         0.021243159031
   29          7.796201700000        -0.025451363597
   30          0.668717580000        -0.041010780977
   31          0.591524239300        -2.131192737101
 P 31
    1        113.557000000000        -0.000007381127
    2         20.363900000000         0.000348171782
    3         12.727400000000        -0.003333446801
    4          7.949840000000         0.007604334919
    5          4.964770000000         0.000606740111
    6          2.301300000000        -0.010796033556
    7          1.195450000000        -0.009731301170
    8        113.557000000000         0.000190607755
    9         20.363900000000        -0.008991071298
   10         12.727400000000         0.086081811851
   11          7.949840000000        -0.196371793771
   12          4.964770000000        -0.015668253063
   13          2.301300000000         0.278793148609
   14          1.195450000000         0.251297856670
   15        113.557000000000         0.000007204594
   16         20.363900000000        -0.000339844628
   17         12.727400000000         0.003253721425
   18          7.949840000000        -0.007422463571
   19          4.964770000000        -0.000592228830
   20          2.301300000000         0.010537826994
   21          1.195450000000         0.009498559598
   22          8.468130000000         0.011036434469
   23          7.796201700000        -0.013222718244
   24          0.668717580000        -0.021306284819
   25          8.468130000000        -0.285001181122
   26          7.796201700000         0.341459039862
   27          0.668717580000         0.550206351134
   28          8.468130000000        -0.010772478287
   29          7.796201700000         0.012906473153
   30          0.668717580000         0.020796706692
   31          0.591524239300         0.054363232815
 P 31
    1        113.557000000000         0.000128809864
    2         20.363900000000        -0.006076031212
    3         12.727400000000         0.058172798129
    4          7.949840000000        -0.132705114724
    5          4.964770000000        -0.010588370561
    6          2.301300000000         0.188404230872
    7          1.195450000000         0.169823324719
    8        113.557000000000         0.000005199564
    9         20.363900000000        -0.000245266243
   10         12.727400000000         0.002348214348
   11          7.949840000000        -0.005356800162
   12          4.964770000000        -0.000427412201
   13          2.301300000000         0.007605161387
   14          1.195450000000         0.006855120959
   15        113.557000000000        -0.000005595758
   16         20.363900000000         0.000263954932
   17         12.727400000000        -0.002527142548
   18          7.949840000000         0.005764975256
   19          4.964770000000         0.000459979967
   20          2.301300000000        -0.008184656119
   21          1.195450000000        -0.007377464441
   22          8.468130000000        -0.189834565701
   23          7.796201700000         0.227440210183
   24          0.668717580000         0.366483336322
   25          8.468130000000        -0.007662898558
   26          7.796201700000         0.009180895230
   27          0.668717580000         0.014793536778
   28          8.468130000000         0.008246792721
   29          7.796201700000        -0.009880457033
   30          0.668717580000        -0.015920768165
   31          0.591524239300        -0.859747480217
 P 31
    1        113.557000000000         0.000444768248
    2         20.363900000000        -0.020979959737
    3         12.727400000000         0.200865156878
    4          7.949840000000        -0.458218180057
    5          4.964770000000        -0.036560639720
    6          2.301300000000         0.650541947572
    7          1.195450000000         0.586383840184
    8        113.557000000000         0.000017953601
    9         20.363900000000        -0.000846881086
   10         12.727400000000         0.008108161522
   11          7.949840000000        -0.018496523111
   12          4.964770000000        -0.001475813809
   13          2.301300000000         0.026259901269
   14          1.195450000000         0.023670082777
   15        113.557000000000        -0.000019321621
   16         20.363900000000         0.000911411358
   17         12.727400000000        -0.008725983635
   18          7.949840000000         0.019905913014
   19          4.964770000000         0.001588267218
   20          2.301300000000        -0.028260841633
   21          1.195450000000        -0.025473685295
   22          8.468130000000        -0.785565350062
   23          7.796201700000         0.941183433433
   24          0.668717580000         1.516565802053
   25          8.468130000000        -0.031710281881
   26          7.796201700000         0.037991991339
   27          0.668717580000         0.061217986600
   28          8.468130000000         0.034126527941
   29          7.796201700000        -0.040886888324
   30          0.668717580000        -0.065882647719
   31          0.591524239300        -4.885722642790
 P 31
    1        113.557000000000        -0.000831240857
    2         20.363900000000         0.039210082529
    3         12.727400000000        -0.375402978714
    4          7.949840000000         0.856377842565
    5          4.964770000000         0.068329287507
    6          2.301300000000        -1.215817559859
    7          1.195450000000        -1.095910528713
    8        113.557000000000        -0.000033554028
    9         20.363900000000         0.001582761707
   10         12.727400000000        -0.015153588595
   11          7.949840000000         0.034568712142
   12          4.964770000000         0.002758193117
   13          2.301300000000        -0.049077924667
   14          1.195450000000        -0.044237734464
   15        113.557000000000         0.000036110764
   16         20.363900000000        -0.001703364323
   17         12.727400000000         0.016308255413
   18          7.949840000000        -0.037202764439
   19          4.964770000000        -0.002968360764
   20          2.301300000000         0.052817543884
   21          1.195450000000         0.047608542888
   22          8.468130000000        -5.021036870187
   23          7.796201700000         6.015688854534
   24          0.668717580000         9.693315530746
   25          8.468130000000        -0.202680136724
   26          7.796201700000         0.242830449377
   27          0.668717580000         0.391282232709
   28          8.468130000000         0.218123873177
   29          7.796201700000        -0.261333542593
   30          0.668717580000        -0.421096992942
   31          0.591524239300        -8.741211809231
 end
  // -----------------------------------------------
  // The basis set
  // -----------------------------------------------
  BAS[ATNO] = new BFNGauss[NSH];
  // Basis function   1 L = s
  InitBFNGauss(BAS[ATNO][  0]);
  BAS[ATNO][  0].l  = 0;
  BAS[ATNO][  0].ng = 17;
  BAS[ATNO][  0].a[  0] =      8913.290000000001;     BAS[ATNO][  0].d[  0] =         0.000050295440;
  BAS[ATNO][  0].a[  1] =      1338.980000000000;     BAS[ATNO][  0].d[  1] =         0.000354208388;
  BAS[ATNO][  0].a[  2] =       299.538000000000;     BAS[ATNO][  0].d[  2] =         0.001242404719;
  BAS[ATNO][  0].a[  3] =        51.148900000000;     BAS[ATNO][  0].d[  3] =         0.008452846561;
  BAS[ATNO][  0].a[  4] =        23.015600000000;     BAS[ATNO][  0].d[  4] =        -0.159818619209;
  BAS[ATNO][  0].a[  5] =        14.376500000000;     BAS[ATNO][  0].d[  5] =         0.682992997308;
  BAS[ATNO][  0].a[  6] =         8.982790000000;     BAS[ATNO][  0].d[  6] =        -0.660350412170;
  BAS[ATNO][  0].a[  7] =         5.612920000000;     BAS[ATNO][  0].d[  7] =        -0.647631013000;
  BAS[ATNO][  0].a[  8] =         2.164840000000;     BAS[ATNO][  0].d[  8] =         0.830502071813;
  BAS[ATNO][  0].a[  9] =         1.175380000000;     BAS[ATNO][  0].d[  9] =         0.721593296173;
  BAS[ATNO][  0].a[ 10] =        14.787766907000;     BAS[ATNO][  0].d[ 10] =         0.028075216017;
  BAS[ATNO][  0].a[ 11] =        11.958781204000;     BAS[ATNO][  0].d[ 11] =        -0.048134675313;
  BAS[ATNO][  0].a[ 12] =         2.479845506600;     BAS[ATNO][  0].d[ 12] =         0.092397740304;
  BAS[ATNO][  0].a[ 13] =         0.554814777900;     BAS[ATNO][  0].d[ 13] =        -0.170446544031;
  BAS[ATNO][  0].a[ 14] =         0.285817352000;     BAS[ATNO][  0].d[ 14] =         0.126262645787;
  BAS[ATNO][  0].a[ 15] =         0.138494394700;     BAS[ATNO][  0].d[ 15] =        -0.056319103456;
  BAS[ATNO][  0].a[ 16] =         0.064954523800;     BAS[ATNO][  0].d[ 16] =         0.014275959519;

FINAL SINGLE POINT ENERGY      -211.609550202906

DIPOLE MOMENT
-------------
                                X             Y             Z
Electronic contribution:      0.00000       0.00000      -0.00000
Nuclear contribution   :      0.00000       0.00000       0.00000
                        -----------------------------------------
Total Dipole Moment    :      0.00000       0.00000      -0.00000
                        -----------------------------------------
Magnitude (a.u.)       :      0.00000
Magnitude (Debye)      :      0.00000

Rotational constants in cm-1:     0.000000     0.000000     0.000000
Rotational constants in MHz :     0.000000     0.000000     0.000000

                             ****ORCA TERMINATED NORMALLY****
TOTAL RUN TIME: 0 days 0 hours 0 minutes 1 seconds 249 msec
