                         Program Version 4.2.0 -  RELEASE  -
|  1> #
|  2> # 84_Po CCSD(T)/Def2-QZVP
|  3> #
|  4> ! CCSD(T) Def2-QZVP tightscf slowconv
|  5>
|  6> *xyz 0 3
|  7>  Po 0.0 0.0 0.0
|  8> *
|  9>
| 10> %maxcore 5000
| 11>
| 12> %pal
| 13> nprocs 24
| 14> end
| 15>
| 16>
| 17>                          ****END OF INPUT****

CARTESIAN COORDINATES (ANGSTROEM)
---------------------------------
  Po     0.000000    0.000000    0.000000

 Total Charge           Charge          ....    0
 Multiplicity           Mult            ....    3
 Number of Electrons    NEL             ....   24
 Basis Dimension        Dim             ....   82

ORBITAL ENERGIES
----------------
                 SPIN UP ORBITALS
  NO   OCC          E(Eh)            E(eV)
   0   1.0000      -7.245996      -197.1736
   1   1.0000      -4.687485      -127.5529
   2   1.0000      -4.687485      -127.5529
   3   1.0000      -4.669570      -127.0655
   4   1.0000      -1.580665       -43.0121
   5   1.0000      -1.580665       -43.0121
   6   1.0000      -1.563990       -42.5583
   7   1.0000      -1.563990       -42.5583
   8   1.0000      -1.558782       -42.4166
   9   1.0000      -0.882658       -24.0183
  10   1.0000      -0.376805       -10.2534
  11   1.0000      -0.376805       -10.2534
  12   1.0000      -0.326433        -8.8827
  13   0.0000       0.119730         3.2580
  14   0.0000       0.137989         3.7549
  15   0.0000       0.137989         3.7549
  16   0.0000       0.150994         4.1087
  17   0.0000       0.217973         5.9313

                 SPIN DOWN ORBITALS
  NO   OCC          E(Eh)            E(eV)
   0   1.0000      -7.234806      -196.8691
   1   1.0000      -4.674197      -127.1914
   2   1.0000      -4.674197      -127.1914
   3   1.0000      -4.670145      -127.0811
   4   1.0000      -1.563598       -42.5477
   5   1.0000      -1.563598       -42.5477
   6   1.0000      -1.555291       -42.3216
   7   1.0000      -1.555291       -42.3216
   8   1.0000      -1.552875       -42.2559
   9   1.0000      -0.733230       -19.9522
  10   1.0000      -0.292798        -7.9674
  11   0.0000      -0.007687        -0.2092
  12   0.0000      -0.007687        -0.2092
  13   0.0000       0.138081         3.7574
  14   0.0000       0.154715         4.2100
  15   0.0000       0.169020         4.5993

E(0)                                       ...   -236.726906726
E(0)                                       ...   -236.726906726
E(CORR)                                    ...     -0.480070420
E(TOT)                                     ...   -237.206977147
E(CCSD(T))                                 ...   -237.217619175

MULLIKEN ATOMIC CHARGES AND SPIN DENSITIES
------------------------------------------
   0 Po:   -0.000000    2.000000
Sum of atomic charges       :   -0.0000000

LOEWDIN ATOMIC CHARGES AND SPIN DENSITIES
-----------------------------------------
   0 Po:   -0.000000    2.000000

FINAL SINGLE POINT ENERGY      -237.217619175008

DIPOLE MOMENT
-------------
                                X             Y             Z
Electronic contribution:      0.00000       0.00000      -0.00000
Nuclear contribution   :      0.00000       0.00000       0.00000
                        -----------------------------------------
Total Dipole Moment    :      0.00000       0.00000      -0.00000
                        -----------------------------------------
Magnitude (a.u.)       :      0.00000
Magnitude (Debye)      :      0.00000

Rotational constants in cm-1:     0.000000     0.000000     0.000000
Rotational constants in MHz :     0.000000     0.000000     0.000000

                             ****ORCA TERMINATED NORMALLY****
TOTAL RUN TIME: 0 days 0 hours 0 minutes 26 seconds 367 msec
