                         Program Version 4.2.0 -  RELEASE  -
|  1> # input to generate an atomic fitting density for At
|  2> # this file is use internally by ORCA
|  3> #
|  4> # atomic ground state (S=2): 1s2 2s2 2p6 3s2 3p6 4s2 3d10 4p6 5s2 4d10 5p6 6s2 4f14 5d10 6p5
|  5> #
|  6> ! RHF AllowRHF def2-SVP def2/J  NoMulliken NoLoewdin NoMayer NoPrintMOs
|  7>
|  8> %output print[p_atomdensfit] 2 end
|  9>
| 10> %scf
| 11>   guess hcore
| 12>   maxiter 1000
| 13>   maxdisk 500000
| 14>   SCFMode Conventional
| 15>   lshift 1.000000
| 16>   hftyp rohf
| 17>   rohf_case sahf
| 18>   rohf_numop   2
| 19>   rohf_norb[1] 3
| 20>   rohf_nel[1]  5
| 21> end
| 22>
| 23> %basis
| 24>   NewECP 85
| 25>     N_core 60
| 26>     lmax f
| 27>     s 7
| 28>       1      30.2008320000     49.9571580000  2
| 29>       2      13.6123060000    283.2103710000  2
| 30>       3       8.5293400000     62.2810520000  2
| 31>       4       5.8121630000    -19.8701980000  2
| 32>       5       5.7537150000    -26.4164520000  2
| 33>       6       2.5134720000     -0.9949700000  2
| 34>       7       2.5362610000     -1.4907010000  2
| 35>     p 8
| 36>       1      10.8540650000     71.9823710000  2
| 37>       2       9.4682290000    143.9035320000  2
| 38>       3       7.0311140000      4.8717590000  2
| 39>       4       6.1438580000      8.9830590000  2
| 40>       5       5.8121630000    -19.8701980000  2
| 41>       6       5.7537150000    -26.4164520000  2
| 42>       7       2.5134720000     -0.9949700000  2
| 43>       8       2.5362610000     -1.4907010000  2
| 44>     d 8
| 45>       1       8.3135150000     36.3632370000  2
| 46>       2       7.9989650000     54.5489700000  2
| 47>       3       5.1799660000      9.7762850000  2
| 48>       4       4.9422260000     14.2647550000  2
| 49>       5       5.8121630000    -19.8701980000  2
| 50>       6       5.7537150000    -26.4164520000  2
| 51>       7       2.5134720000     -0.9949700000  2
| 52>       8       2.5362610000     -1.4907010000  2
| 53>     f 4
| 54>       1       5.8121630000     19.8701980000  2
| 55>       2       5.7537150000     26.4164520000  2
| 56>       3       2.5134720000      0.9949700000  2
| 57>       4       2.5362610000      1.4907010000  2
| 58>   end
| 59>   NewGTO 85
| 60>     s 9
| 61>      1    9090.2800000000      0.0000868503
| 62>      2    1373.0700000000      0.0006005080
| 63>      3     307.9500000000      0.0020223720
| 64>      4      48.0176000000      0.0210053728
| 65>      5      23.9099000000     -0.3655977072
| 66>      6      14.9334000000      1.5692986229
| 67>      7       9.3317100000     -1.5295732817
| 68>      8       5.8320600000     -1.5366503430
| 69>      9       2.2878700000      1.9482365409
| 70>     s 1
| 71>      1       1.2537238008      1.0000000000
| 72>     s 3
| 73>      1      14.8057808760      0.3597476959
| 74>      2      11.8557836280     -0.6388515448
| 75>      3       2.5818782360      1.1943198423
| 76>     s 1
| 77>      1       0.6146069198      1.0000000000
| 78>     s 1
| 79>      1       0.3148671664      1.0000000000
| 80>     s 1
| 81>      1       0.1544166915      1.0000000000
| 82>     s 1
| 83>      1       0.0728664246      1.0000000000
| 84>     p 7
| 85>      1     124.6020000000      0.0005140380
| 86>      2      20.8899000000     -0.0177101479
| 87>      3      13.0585000000      0.1880368689
| 88>      4       8.1606100000     -0.4490967942
| 89>      5       5.0980800000     -0.0180209871
| 90>      6       2.3787600000      0.6460315736
| 91>      7       1.2375500000      0.5502810067
| 92>     p 3
| 93>      1       8.7977584321     -0.4996091715
| 94>      2       8.0996431502      0.5992471358
| 95>      3       0.6762971977      0.9653695793
| 96>     p 1
| 97>      1       0.6078501793      1.0000000000
| 98>     p 1
| 99>      1       0.2611656142      1.0000000000
|100>     p 1
|101>      1       0.1194861126      1.0000000000
|102>     p 1
|103>      1       0.0528990861      1.0000000000
|104>   end
|105>   NewAuxGTO 85
|106>     S 1
|107>      1 1310.72 1.0
|108>     S 1
|109>      1  655.36 1.0
|110>     S 1
|111>      1  327.68 1.0
|112>     S 1
|113>      1  163.84 1.0
|114>     S 1
|115>      1   81.82 1.0
|116>     S 1
|117>      1   40.96 1.0
|118>     S 1
|119>      1   20.48 1.0
|120>     S 1
|121>      1   10.24 1.0
|122>     S 1
|123>      1    5.12 1.0
|124>     S 1
|125>      1    2.56 1.0
|126>     S 1
|127>      1    1.28 1.0
|128>     S 1
|129>      1    0.64 1.0
|130>     S 1
|131>      1    0.32 1.0
|132>     S 1
|133>      1    0.16 1.0
|134>     S 1
|135>      1    0.08 1.0
|136>     S 1
|137>      1    0.04 1.0
|138>     S 1
|139>      1    0.02 1.0
|140>     S 1
|141>      1    0.01 1.0
|142>   end
|143> end
|144>
|145> * xyz 0 2
|146> 85  0.0 0.0 0.0
|147> *
|148>
|149>
|150>                          ****END OF INPUT****

CARTESIAN COORDINATES (ANGSTROEM)
---------------------------------
  At     0.000000    0.000000    0.000000

 Total Charge           Charge          ....    0
 Multiplicity           Mult            ....    2
 Number of Electrons    NEL             ....   25
 Basis Dimension        Dim             ....   25

ORBITAL ENERGIES
----------------

  NO   OCC          E(Eh)            E(eV)
   0   2.0000     -11.673059      -317.6401
   1   2.0000      -8.606536      -234.1957
   2   2.0000      -8.606536      -234.1957
   3   2.0000      -8.603615      -234.1163
   4   2.0000      -3.191590       -86.8476
   5   2.0000      -2.104415       -57.2641
   6   2.0000      -2.104415       -57.2641
   7   2.0000      -2.099560       -57.1319
   8   2.0000      -0.660599       -17.9758
   9   2.0000      -0.334453        -9.1009
  10   1.6667      -0.341570        -9.2946
  11   1.6667      -0.341570        -9.2946
  12   1.6667       0.023135         0.6295
  13   0.0000       0.153698         4.1823
  14   0.0000       0.153698         4.1823
  15   0.0000       0.157822         4.2946
  16   0.0000       0.972601        26.4658
  17   0.0000       0.972601        26.4658

CleanUpVectors: The p-vectors have cracked symmetry
CleanUpVectors: The p-vectors have cracked symmetry
CleanUpVectors: The p-vectors have cracked symmetry
CleanUpVectors: The p-vectors have cracked symmetry
CleanUpVectors: The p-vectors have cracked symmetry
CleanUpVectors: The p-vectors have cracked symmetry
CleanUpVectors: The p-vectors have cracked symmetry
CleanUpVectors: The p-vectors have cracked symmetry
CleanUpVectors: The p-vectors have cracked symmetry
CleanUpVectors: The p-vectors have cracked symmetry
CleanUpVectors: The p-vectors have cracked symmetry
CleanUpVectors: The p-vectors have cracked symmetry
CleanUpVectors: The p-vectors have cracked symmetry
CleanUpVectors: The p-vectors have cracked symmetry
CleanUpVectors: The p-vectors have cracked symmetry
CleanUpVectors: The p-vectors have cracked symmetry
CleanUpVectors: The p-vectors have cracked symmetry
--------------------------
ATOM BASIS FOR ELEMENT At
--------------------------
 NewGTO At
 S 17
    1       9090.280000000001         0.000037323231
    2       1373.070000000000         0.000258063576
    3        307.950000000000         0.000869098412
    4         48.017600000000         0.009026893247
    5         23.909900000000        -0.157112730427
    6         14.933400000000         0.674393702813
    7          9.331710000000        -0.657322050830
    8          5.832060000000        -0.660363362092
    9          2.287870000000         0.837239283588
   10          1.253723800800         0.734257846978
   11         14.805780876000         0.028731089887
   12         11.855783628000        -0.051021594766
   13          2.581878236000         0.095383823536
   14          0.614606919800        -0.179384671665
   15          0.314867166400         0.129282015173
   16          0.154416691500        -0.057963006449
   17          0.072866424600         0.014491126544
 P 31
    1        124.602000000000        -0.000524539970
    2         20.889900000000         0.018071972199
    3         13.058500000000        -0.191878525596
    4          8.160610000000         0.458271993281
    5          5.098080000000         0.018389161949
    6          2.378760000000        -0.659230216692
    7          1.237550000000        -0.561523433393
    8        124.602000000000        -0.000077936509
    9         20.889900000000         0.002685146050
   10         13.058500000000        -0.028509443204
   11          8.160610000000         0.068090367715
   12          5.098080000000         0.002732274321
   13          2.378760000000        -0.097948878661
   14          1.237550000000        -0.083431537648
   15        124.602000000000        -0.000071428286
   16         20.889900000000         0.002460918265
   17         13.058500000000        -0.026128712638
   18          8.160610000000         0.062404363308
   19          5.098080000000         0.002504111008
   20          2.378760000000        -0.089769487442
   21          1.237550000000        -0.076464442203
   22          8.797758432100         0.086340080297
   23          8.099643150200        -0.103559039294
   24          0.676297197700        -0.166830578276
   25          8.797758432100         0.012828468469
   26          8.099643150200        -0.015386873231
   27          0.676297197700        -0.024787801977
   28          8.797758432100         0.011757204930
   29          8.099643150200        -0.014101965659
   30          0.676297197700        -0.022717853524
   31          0.607850179300         0.287174172516
 S 17
    1       9090.280000000001         0.000025536308
    2       1373.070000000000         0.000176565394
    3        307.950000000000         0.000594631393
    4         48.017600000000         0.006176140735
    5         23.909900000000        -0.107495492395
    6         14.933400000000         0.461415716950
    7          9.331710000000        -0.449735405426
    8          5.832060000000        -0.451816250503
    9          2.287870000000         0.572833587687
   10          1.253723800800         1.409782603810
   11         14.805780876000         0.120249164923
   12         11.855783628000        -0.213542339945
   13          2.581878236000         0.399213018804
   14          0.614606919800        -1.999102565484
   15          0.314867166400        -0.024362764411
   16          0.154416691500        -0.185577300750
   17          0.072866424600         0.048242790147
 P 31
    1        124.602000000000         0.000478372614
    2         20.889900000000        -0.016481368592
    3         13.058500000000         0.174990348062
    4          8.160610000000        -0.417937209816
    5          5.098080000000        -0.016770640904
    6          2.378760000000         0.601208106605
    7          1.237550000000         0.512100980290
    8        124.602000000000         0.000007252576
    9         20.889900000000        -0.000249872965
   10         13.058500000000         0.002653017363
   11          8.160610000000        -0.006336319040
   12          5.098080000000        -0.000254258603
   13          2.378760000000         0.009114877267
   14          1.237550000000         0.007763929881
   15        124.602000000000         0.000034262676
   16         20.889900000000        -0.001180451748
   17         13.058500000000         0.012533404684
   18          8.160610000000        -0.029934086315
   19          5.098080000000        -0.001201170416
   20          2.378760000000         0.043060572100
   21          1.237550000000         0.036678416245
   22          8.797758432100        -0.506283538221
   23          8.099643150200         0.607252583596
   24          0.676297197700         0.978266121159
   25          8.797758432100        -0.007675732018
   26          8.099643150200         0.009206517192
   27          0.676297197700         0.014831429468
   28          8.797758432100        -0.036261751232
   29          8.099643150200         0.043493498127
   30          0.676297197700         0.070066751230
   31          0.607850179300        -2.269459665090
 S 17
    1       9090.280000000001         0.000008627231
    2       1373.070000000000         0.000059651161
    3        307.950000000000         0.000200891308
    4         48.017600000000         0.002086558167
    5         23.909900000000        -0.036316464796
    6         14.933400000000         0.155885491267
    7          9.331710000000        -0.151939394433
    8          5.832060000000        -0.152642390766
    9          2.287870000000         0.193527099209
   10          1.253723800800         0.564843730635
   11         14.805780876000         0.077686889766
   12         11.855783628000        -0.137958880914
   13          2.581878236000         0.257911294475
   14          0.614606919800        -0.711239340743
   15          0.314867166400        -2.889425048596
   16          0.154416691500         6.016405614322
   17          0.072866424600        -3.478097255418
 S 17
    1       9090.280000000001        -0.000024784464
    2       1373.070000000000        -0.000171366929
    3        307.950000000000        -0.000577124167
    4         48.017600000000        -0.005994301875
    5         23.909900000000         0.104330594020
    6         14.933400000000        -0.447830646355
    7          9.331710000000         0.436494228311
    8          5.832060000000         0.438513808835
    9          2.287870000000        -0.555968135467
   10          1.253723800800        -3.783486136746
   11         14.805780876000        -0.080747697475
   12         11.855783628000         0.143394361823
   13          2.581878236000        -0.268072814401
   14          0.614606919800        12.479850630315
   15          0.314867166400       -15.755277412587
   16          0.154416691500        10.012750577618
   17          0.072866424600        -2.887933146743
 S 17
    1       9090.280000000001         0.000047701040
    2       1373.070000000000         0.000329818738
    3        307.950000000000         0.001110753198
    4         48.017600000000         0.011536841394
    5         23.909900000000        -0.200798281563
    6         14.933400000000         0.861910401875
    7          9.331710000000        -0.840091938328
    8          5.832060000000        -0.843978893086
    9          2.287870000000         1.070035565833
   10          1.253723800800        12.668203336066
   11         14.805780876000        -2.106519311313
   12         11.855783628000         3.740824837853
   13          2.581878236000        -6.993395205478
   14          0.614606919800       -14.502984295199
   15          0.314867166400        10.609346246572
   16          0.154416691500        -4.832960853550
   17          0.072866424600         1.192530568607
 P 31
    1        124.602000000000        -0.000027815256
    2         20.889900000000         0.000958318830
    3         13.058500000000        -0.010174916278
    4          8.160610000000         0.024301203847
    5          5.098080000000         0.000975138738
    6          2.378760000000        -0.034957597481
    7          1.237550000000        -0.029776411432
    8        124.602000000000        -0.000209326976
    9         20.889900000000         0.007211940956
   10         13.058500000000        -0.076572528007
   11          8.160610000000         0.182881564945
   12          5.098080000000         0.007338521150
   13          2.378760000000        -0.263077507365
   14          1.237550000000        -0.224085882964
   15        124.602000000000         0.000432663713
   16         20.889900000000        -0.014906560098
   17         13.058500000000         0.158269874574
   18          8.160610000000        -0.378002961363
   19          5.098080000000        -0.015168192199
   20          2.378760000000         0.543762171338
   21          1.237550000000         0.463169305150
   22          8.797758432100         0.029482966385
   23          8.099643150200        -0.035362807909
   24          0.676297197700        -0.056968447498
   25          8.797758432100         0.221877527788
   26          8.099643150200        -0.266126966056
   27          0.676297197700        -0.428722745448
   28          8.797758432100        -0.458604794797
   29          8.099643150200         0.550065181793
   30          0.676297197700         0.886138892305
   31          0.607850179300         0.132303317339
 P 31
    1        124.602000000000         0.000024145811
    2         20.889900000000        -0.000831895462
    3         13.058500000000         0.008832620640
    4          8.160610000000        -0.021095339637
    5          5.098080000000        -0.000846496453
    6          2.378760000000         0.030345920160
    7          1.237550000000         0.025848246707
    8        124.602000000000         0.000217469253
    9         20.889900000000        -0.007492466770
   10         13.058500000000         0.079551000910
   11          8.160610000000        -0.189995183887
   12          5.098080000000        -0.007623970605
   13          2.378760000000         0.273310540641
   14          1.237550000000         0.232802243097
   15        124.602000000000         0.000106766067
   16         20.889900000000        -0.003678410625
   17         13.058500000000         0.039055394702
   18          8.160610000000        -0.093277731434
   19          5.098080000000        -0.003742972153
   20          2.378760000000         0.134181228631
   21          1.237550000000         0.114293766108
   22          8.797758432100        -0.030802560563
   23          8.099643150200         0.036945571149
   24          0.676297197700         0.059518232706
   25          8.797758432100        -0.277423272584
   26          8.099643150200         0.332750299601
   27          0.676297197700         0.536050983888
   28          8.797758432100        -0.136200365632
   29          8.099643150200         0.163363051872
   30          0.676297197700         0.263173090429
   31          0.607850179300        -0.158559769123
 P 31
    1        124.602000000000        -0.000009058773
    2         20.889900000000         0.000312101863
    3         13.058500000000        -0.003313730490
    4          8.160610000000         0.007914329507
    5          5.098080000000         0.000317579711
    6          2.378760000000        -0.011384865828
    7          1.237550000000        -0.009697475611
    8        124.602000000000        -0.000068172864
    9         20.889900000000         0.002348759241
   10         13.058500000000        -0.024937868165
   11          8.160610000000         0.059560216635
   12          5.098080000000         0.002389983428
   13          2.378760000000        -0.085678145499
   14          1.237550000000        -0.072979492155
   15        124.602000000000         0.000140908377
   16         20.889900000000        -0.004854715394
   17         13.058500000000         0.051544768982
   18          8.160610000000        -0.123106657980
   19          5.098080000000        -0.004939922805
   20          2.378760000000         0.177090527037
   21          1.237550000000         0.150843329455
   22          8.797758432100         0.011498926525
   23          8.099643150200        -0.013792178323
   24          0.676297197700        -0.022218795201
   25          8.797758432100         0.086536522682
   26          8.099643150200        -0.103794658540
   27          0.676297197700        -0.167210153979
   28          8.797758432100        -0.178864730563
   29          8.099643150200         0.214536048575
   30          0.676297197700         0.345611288873
   31          0.607850179300         0.054729839977
 P 31
    1        124.602000000000        -0.000029637937
    2         20.889900000000         0.001021115664
    3         13.058500000000        -0.010841659440
    4          8.160610000000         0.025893616112
    5          5.098080000000         0.001039037749
    6          2.378760000000        -0.037248303214
    7          1.237550000000        -0.031727603771
    8        124.602000000000        -0.000223043780
    9         20.889900000000         0.007684525904
   10         13.058500000000        -0.081590181976
   11          8.160610000000         0.194865450471
   12          5.098080000000         0.007819400660
   13          2.378760000000        -0.280316482402
   14          1.237550000000        -0.238769810075
   15        124.602000000000         0.000461015353
   16         20.889900000000        -0.015883358994
   17         13.058500000000         0.168641002307
   18          8.160610000000        -0.402772785730
   19          5.098080000000        -0.016162135356
   20          2.378760000000         0.579393885525
   21          1.237550000000         0.493519920127
   22          8.797758432100         0.043973658507
   23          8.099643150200        -0.052743405074
   24          0.676297197700        -0.084968080322
   25          8.797758432100         0.330928933872
   26          8.099643150200        -0.396926692079
   27          0.676297197700        -0.639437271960
   28          8.797758432100        -0.684006160414
   29          8.099643150200         0.820418751055
   30          0.676297197700         1.321670571689
   31          0.607850179300         0.286813030658
 P 31
    1        124.602000000000         0.000054200140
    2         20.889900000000        -0.001867357080
    3         13.058500000000         0.019826597750
    4          8.160610000000        -0.047352742798
    5          5.098080000000        -0.001900131950
    6          2.378760000000         0.068117535772
    7          1.237550000000         0.058021600940
    8        124.602000000000         0.000407889530
    9         20.889900000000        -0.014053015338
   10         13.058500000000         0.149207393278
   11          8.160610000000        -0.356358635326
   12          5.098080000000        -0.014299666471
   13          2.378760000000         0.512626527107
   14          1.237550000000         0.436648382099
   15        124.602000000000        -0.000843078148
   16         20.889900000000         0.029046565993
   17         13.058500000000        -0.308400887016
   18          8.160610000000         0.736567517304
   19          5.098080000000         0.029556376040
   20          2.378760000000        -1.059561943911
   21          1.237550000000        -0.902520615064
   22          8.797758432100         0.296903885548
   23          8.099643150200        -0.356115966584
   24          0.676297197700        -0.573692388840
   25          8.797758432100         2.234385111108
   26          8.099643150200        -2.679992591181
   27          0.676297197700        -4.317389547171
   28          8.797758432100        -4.618312370867
   29          8.099643150200         5.539350793267
   30          0.676297197700         8.923731838538
   31          0.607850179300         0.520692684683
 end
  // -----------------------------------------------
  // The basis set
  // -----------------------------------------------
  BAS[ATNO] = new BFNGauss[NSH];
  // Basis function   1 L = s
  InitBFNGauss(BAS[ATNO][  0]);
  BAS[ATNO][  0].l  = 0;
  BAS[ATNO][  0].ng = 17;
  BAS[ATNO][  0].a[  0] =      9090.280000000001;     BAS[ATNO][  0].d[  0] =         0.000037323231;
  BAS[ATNO][  0].a[  1] =      1373.070000000000;     BAS[ATNO][  0].d[  1] =         0.000258063576;
  BAS[ATNO][  0].a[  2] =       307.950000000000;     BAS[ATNO][  0].d[  2] =         0.000869098412;
  BAS[ATNO][  0].a[  3] =        48.017600000000;     BAS[ATNO][  0].d[  3] =         0.009026893247;
  BAS[ATNO][  0].a[  4] =        23.909900000000;     BAS[ATNO][  0].d[  4] =        -0.157112730427;
  BAS[ATNO][  0].a[  5] =        14.933400000000;     BAS[ATNO][  0].d[  5] =         0.674393702813;
  BAS[ATNO][  0].a[  6] =         9.331710000000;     BAS[ATNO][  0].d[  6] =        -0.657322050830;
  BAS[ATNO][  0].a[  7] =         5.832060000000;     BAS[ATNO][  0].d[  7] =        -0.660363362092;
  BAS[ATNO][  0].a[  8] =         2.287870000000;     BAS[ATNO][  0].d[  8] =         0.837239283588;
  BAS[ATNO][  0].a[  9] =         1.253723800800;     BAS[ATNO][  0].d[  9] =         0.734257846978;
  BAS[ATNO][  0].a[ 10] =        14.805780876000;     BAS[ATNO][  0].d[ 10] =         0.028731089887;
  BAS[ATNO][  0].a[ 11] =        11.855783628000;     BAS[ATNO][  0].d[ 11] =        -0.051021594766;
  BAS[ATNO][  0].a[ 12] =         2.581878236000;     BAS[ATNO][  0].d[ 12] =         0.095383823536;
  BAS[ATNO][  0].a[ 13] =         0.614606919800;     BAS[ATNO][  0].d[ 13] =        -0.179384671665;
  BAS[ATNO][  0].a[ 14] =         0.314867166400;     BAS[ATNO][  0].d[ 14] =         0.129282015173;
  BAS[ATNO][  0].a[ 15] =         0.154416691500;     BAS[ATNO][  0].d[ 15] =        -0.057963006449;
  BAS[ATNO][  0].a[ 16] =         0.072866424600;     BAS[ATNO][  0].d[ 16] =         0.014491126544;

FINAL SINGLE POINT ENERGY      -231.821944652759

DIPOLE MOMENT
-------------
                                X             Y             Z
Electronic contribution:     -0.00000      -0.00000       0.00000
Nuclear contribution   :      0.00000       0.00000       0.00000
                        -----------------------------------------
Total Dipole Moment    :     -0.00000      -0.00000       0.00000
                        -----------------------------------------
Magnitude (a.u.)       :      0.00000
Magnitude (Debye)      :      0.00000

Rotational constants in cm-1:     0.000000     0.000000     0.000000
Rotational constants in MHz :     0.000000     0.000000     0.000000

                             ****ORCA TERMINATED NORMALLY****
TOTAL RUN TIME: 0 days 0 hours 0 minutes 1 seconds 360 msec
