                         Program Version 4.2.0 -  RELEASE  -
|  1> #
|  2> # 85_At CCSD(T)/Def2-QZVP
|  3> #
|  4> ! CCSD(T) Def2-QZVP tightscf slowconv
|  5>
|  6> *xyz 0 2
|  7>  At 0.0 0.0 0.0
|  8> *
|  9>
| 10> %maxcore 5000
| 11>
| 12> %pal
| 13> nprocs 24
| 14> end
| 15>
| 16>
| 17>                          ****END OF INPUT****

CARTESIAN COORDINATES (ANGSTROEM)
---------------------------------
  At     0.000000    0.000000    0.000000

 Total Charge           Charge          ....    0
 Multiplicity           Mult            ....    2
 Number of Electrons    NEL             ....   25
 Basis Dimension        Dim             ....   82

ORBITAL ENERGIES
----------------
                 SPIN UP ORBITALS
  NO   OCC          E(Eh)            E(eV)
   0   1.0000      -7.815148      -212.6610
   1   1.0000      -5.118114      -139.2710
   2   1.0000      -5.097428      -138.7081
   3   1.0000      -5.097428      -138.7081
   4   1.0000      -1.839115       -50.0449
   5   1.0000      -1.832519       -49.8654
   6   1.0000      -1.832519       -49.8654
   7   1.0000      -1.813624       -49.3512
   8   1.0000      -1.813624       -49.3512
   9   1.0000      -0.978496       -26.6262
  10   1.0000      -0.432234       -11.7617
  11   1.0000      -0.377380       -10.2690
  12   1.0000      -0.377380       -10.2690
  13   0.0000       0.135170         3.6782
  14   0.0000       0.144347         3.9279
  15   0.0000       0.156971         4.2714
  16   0.0000       0.156971         4.2714
  17   0.0000       0.246361         6.7038

                 SPIN DOWN ORBITALS
  NO   OCC          E(Eh)            E(eV)
   0   1.0000      -7.807952      -212.4652
   1   1.0000      -5.101472      -138.8181
   2   1.0000      -5.097100      -138.6992
   3   1.0000      -5.097100      -138.6992
   4   1.0000      -1.825860       -49.6842
   5   1.0000      -1.822491       -49.5925
   6   1.0000      -1.822491       -49.5925
   7   1.0000      -1.813448       -49.3464
   8   1.0000      -1.813448       -49.3464
   9   1.0000      -0.897687       -24.4273
  10   1.0000      -0.359227        -9.7751
  11   1.0000      -0.359227        -9.7751
  12   0.0000      -0.047210        -1.2847
  13   0.0000       0.144589         3.9345
  14   0.0000       0.158620         4.3163
  15   0.0000       0.158620         4.3163
  16   0.0000       0.168969         4.5979

E(0)                                       ...   -261.361366809
E(0)                                       ...   -261.361366809
E(CORR)                                    ...     -0.522562437
E(TOT)                                     ...   -261.883929246
E(CCSD(T))                                 ...   -261.895553792

MULLIKEN ATOMIC CHARGES AND SPIN DENSITIES
------------------------------------------
   0 At:   -0.000000    1.000000
Sum of atomic charges       :   -0.0000000

LOEWDIN ATOMIC CHARGES AND SPIN DENSITIES
-----------------------------------------
   0 At:   -0.000000    1.000000

FINAL SINGLE POINT ENERGY      -261.895553791997

DIPOLE MOMENT
-------------
                                X             Y             Z
Electronic contribution:     -0.00000       0.00000      -0.00000
Nuclear contribution   :      0.00000       0.00000       0.00000
                        -----------------------------------------
Total Dipole Moment    :     -0.00000       0.00000      -0.00000
                        -----------------------------------------
Magnitude (a.u.)       :      0.00000
Magnitude (Debye)      :      0.00000

Rotational constants in cm-1:     0.000000     0.000000     0.000000
Rotational constants in MHz :     0.000000     0.000000     0.000000

                             ****ORCA TERMINATED NORMALLY****
TOTAL RUN TIME: 0 days 0 hours 0 minutes 26 seconds 284 msec
