                         Program Version 4.2.0 -  RELEASE  -
|  1> # input to generate an atomic fitting density for Rn
|  2> # this file is use internally by ORCA
|  3> #
|  4> # atomic ground state (S=1): 1s2 2s2 2p6 3s2 3p6 4s2 3d10 4p6 5s2 4d10 5p6 6s2 4f14 5d10 6p6
|  5> #
|  6> ! RHF AllowRHF def2-SVP def2/J  NoMulliken NoLoewdin NoMayer NoPrintMOs
|  7>
|  8> %output print[p_atomdensfit] 2 end
|  9>
| 10> %scf
| 11>   guess hcore
| 12>   maxiter 1000
| 13>   maxdisk 500000
| 14>   SCFMode Conventional
| 15>   lshift 1.000000
| 16>   hftyp rohf
| 17>   rohf_case sahf
| 18>   rohf_numop   2
| 19>   rohf_norb[1] 3
| 20>   rohf_nel[1]  6
| 21> end
| 22>
| 23> %basis
| 24>   NewECP 86
| 25>     N_core 60
| 26>     lmax f
| 27>     s 7
| 28>       1      30.1512420000     49.9655510000  2
| 29>       2      14.5212410000    283.0700000000  2
| 30>       3       8.0520380000     62.0028700000  2
| 31>       4       6.3485710000    -21.7972900000  2
| 32>       5       6.2959490000    -28.9468050000  2
| 33>       6       2.8821180000     -1.4473650000  2
| 34>       7       2.9080480000     -2.1779640000  2
| 35>     p 8
| 36>       1      11.0099420000     71.9691190000  2
| 37>       2       9.6176250000    143.8605590000  2
| 38>       3       7.3360080000      4.7147610000  2
| 39>       4       6.4062530000      9.0130650000  2
| 40>       5       6.3485710000    -21.7972900000  2
| 41>       6       6.2959490000    -28.9468050000  2
| 42>       7       2.8821180000     -1.4473650000  2
| 43>       8       2.9080480000     -2.1779640000  2
| 44>     d 8
| 45>       1       8.3692200000     36.3683650000  2
| 46>       2       8.1169750000     54.5517610000  2
| 47>       3       5.3536560000      9.6344870000  2
| 48>       4       5.0972120000     14.3879020000  2
| 49>       5       6.3485710000    -21.7972900000  2
| 50>       6       6.2959490000    -28.9468050000  2
| 51>       7       2.8821180000     -1.4473650000  2
| 52>       8       2.9080480000     -2.1779640000  2
| 53>     f 4
| 54>       1       6.3485710000     21.7972900000  2
| 55>       2       6.2959490000     28.9468050000  2
| 56>       3       2.8821180000      1.4473650000  2
| 57>       4       2.9080480000      2.1779640000  2
| 58>   end
| 59>   NewGTO 86
| 60>     s 9
| 61>      1   12715.6000000000      0.0001169525
| 62>      2    1913.3000000000      0.0008410624
| 63>      3     429.9560000000      0.0031850883
| 64>      4     100.9780000000      0.0069225903
| 65>      5      24.4708000000     -0.2498826182
| 66>      6      15.2922000000      1.3432711735
| 67>      7       9.5548300000     -1.4279547084
| 68>      8       5.9666100000     -1.5178936391
| 69>      9       2.3893900000      1.9738912834
| 70>     s 1
| 71>      1       1.3276477516      1.0000000000
| 72>     s 3
| 73>      1      17.1951953410      0.3648927886
| 74>      2      14.2303037200     -0.6069497981
| 75>      3       3.0760339153      1.1700485124
| 76>     s 1
| 77>      1       0.6997386676      1.0000000000
| 78>     s 1
| 79>      1       0.3317423489      1.0000000000
| 80>     s 1
| 81>      1       0.1609343188      1.0000000000
| 82>     s 1
| 83>      1       0.0758835962      1.0000000000
| 84>     p 7
| 85>      1     131.7080000000      0.0006384637
| 86>      2      21.4016000000     -0.0157575035
| 87>      3      13.3826000000      0.1856401548
| 88>      4       8.3688000000     -0.4611170697
| 89>      5       5.2294500000     -0.0018761012
| 90>      6       2.4768500000      0.6560984403
| 91>      7       1.3018000000      0.5378156648
| 92>     p 3
| 93>      1       9.0768547920     -0.5029229556
| 94>      2       8.3822367043      0.5995916609
| 95>      3       0.7061869230      0.9663007655
| 96>     p 1
| 97>      1       0.6455386037      1.0000000000
| 98>     p 1
| 99>      1       0.2838050092      1.0000000000
|100>     p 1
|101>      1       0.1316051858      1.0000000000
|102>     p 1
|103>      1       0.0589582598      1.0000000000
|104>   end
|105>   NewAuxGTO 86
|106>     S 1
|107>      1 1310.72 1.0
|108>     S 1
|109>      1  655.36 1.0
|110>     S 1
|111>      1  327.68 1.0
|112>     S 1
|113>      1  163.84 1.0
|114>     S 1
|115>      1   81.82 1.0
|116>     S 1
|117>      1   40.96 1.0
|118>     S 1
|119>      1   20.48 1.0
|120>     S 1
|121>      1   10.24 1.0
|122>     S 1
|123>      1    5.12 1.0
|124>     S 1
|125>      1    2.56 1.0
|126>     S 1
|127>      1    1.28 1.0
|128>     S 1
|129>      1    0.64 1.0
|130>     S 1
|131>      1    0.32 1.0
|132>     S 1
|133>      1    0.16 1.0
|134>     S 1
|135>      1    0.08 1.0
|136>     S 1
|137>      1    0.04 1.0
|138>     S 1
|139>      1    0.02 1.0
|140>     S 1
|141>      1    0.01 1.0
|142>   end
|143> end
|144>
|145> * xyz 0 1
|146> 86  0.0 0.0 0.0
|147> *
|148>
|149>
|150>                          ****END OF INPUT****

CARTESIAN COORDINATES (ANGSTROEM)
---------------------------------
  Rn     0.000000    0.000000    0.000000

 Total Charge           Charge          ....    0
 Multiplicity           Mult            ....    1
 Number of Electrons    NEL             ....   26
 Basis Dimension        Dim             ....   25

ORBITAL ENERGIES
----------------

  NO   OCC          E(Eh)            E(eV)
   0   2.0000     -12.480884      -339.6221
   1   2.0000      -9.319223      -253.5889
   2   2.0000      -9.317183      -253.5334
   3   2.0000      -9.317183      -253.5334
   4   2.0000      -3.527046       -95.9758
   5   2.0000      -2.349168       -63.9241
   6   2.0000      -2.027600       -55.1738
   7   2.0000      -2.027600       -55.1738
   8   2.0000      -0.758002       -20.6263
   9   2.0000      -0.389900       -10.6097
  10   2.0000      -0.713505       -19.4155
  11   2.0000      -0.713505       -19.4155
  12   2.0000       0.000264         0.0072
  13   0.0000       0.195726         5.3260
  14   0.0000       0.195731         5.3261
  15   0.0000       0.195731         5.3261
  16   0.0000       1.074386        29.2355
  17   0.0000       1.074389        29.2356

CleanUpVectors: The p-vectors have cracked symmetry
CleanUpVectors: The p-vectors have cracked symmetry
CleanUpVectors: The p-vectors have cracked symmetry
CleanUpVectors: The p-vectors have cracked symmetry
CleanUpVectors: The p-vectors have cracked symmetry
CleanUpVectors: The p-vectors have cracked symmetry
CleanUpVectors: The p-vectors have cracked symmetry
CleanUpVectors: The p-vectors have cracked symmetry
CleanUpVectors: The p-vectors have cracked symmetry
--------------------------
ATOM BASIS FOR ELEMENT Rn
--------------------------
 NewGTO Rn
 S 17
    1      12715.600000000000         0.000051063987
    2       1913.300000000000         0.000367226007
    3        429.956000000000         0.001390678336
    4        100.978000000000         0.003022552423
    5         24.470800000000        -0.109104147506
    6         15.292200000000         0.586501203282
    7          9.554830000000        -0.623475863423
    8          5.966610000000        -0.662745142864
    9          2.389390000000         0.861843561971
   10          1.327647751600         0.737240706290
   11         17.195195341000         0.027178792293
   12         14.230303720000        -0.045208244751
   13          3.076033915300         0.087150271217
   14          0.699738667600        -0.166676926133
   15          0.331742348900         0.110904550920
   16          0.160934318800        -0.060844201637
   17          0.075883596200         0.019867217675
 P 31
    1        131.708000000000        -0.000009992576
    2         21.401600000000         0.000246620213
    3         13.382600000000        -0.002905448473
    4          8.368800000000         0.007216929373
    5          5.229450000000         0.000029362803
    6          2.476850000000        -0.010268576934
    7          1.301800000000        -0.008417336776
    8        131.708000000000         0.000063170144
    9         21.401600000000        -0.001559060850
   10         13.382600000000         0.018367395420
   11          8.368800000000        -0.045623316588
   12          5.229450000000        -0.000185623055
   13          2.476850000000         0.064914939875
   14          1.301800000000         0.053211941074
   15        131.708000000000        -0.000664258058
   16         21.401600000000         0.016394117121
   17         13.382600000000        -0.193140140514
   18          8.368800000000         0.479746505982
   19          5.229450000000         0.001951896936
   20          2.476850000000        -0.682605253627
   21          1.301800000000        -0.559543775332
   22          9.076854792000         0.001443566767
   23          8.382236704300        -0.001721040143
   24          0.706186923000        -0.002773624978
   25          9.076854792000        -0.009125806864
   26          8.382236704300         0.010879912388
   27          0.706186923000         0.017534045843
   28          9.076854792000         0.095961326025
   29          8.382236704300        -0.114406411982
   30          0.706186923000        -0.184377153128
   31          0.645538603700         0.004736946465
 S 17
    1      12715.600000000000         0.000039075559
    2       1913.300000000000         0.000281011378
    3        429.956000000000         0.001064185075
    4        100.978000000000         0.002312939731
    5         24.470800000000        -0.083489475851
    6         15.292200000000         0.448806751782
    7          9.554830000000        -0.477100772362
    8          5.966610000000        -0.507150698350
    9          2.389390000000         0.659506250673
   10          1.327647751600         1.555049781864
   11         17.195195341000         0.116395612279
   12         14.230303720000        -0.193608357248
   13          3.076033915300         0.373228842147
   14          0.699738667600        -2.045148600942
   15          0.331742348900        -0.100396900075
   16          0.160934318800        -0.262031626018
   17          0.075883596200         0.125438233640
 P 31
    1        131.708000000000         0.000009236172
    2         21.401600000000        -0.000227951889
    3         13.382600000000         0.002685515763
    4          8.368800000000        -0.006670632012
    5          5.229450000000        -0.000027140138
    6          2.476850000000         0.009491280082
    7          1.301800000000         0.007780172598
    8        131.708000000000        -0.000058388375
    9         21.401600000000         0.001441045170
   10         13.382600000000        -0.016977045157
   11          8.368800000000         0.042169784459
   12          5.229450000000         0.000171572012
   13          2.476850000000        -0.060001096531
   14          1.301800000000        -0.049183975509
   15        131.708000000000         0.000613975950
   16         21.401600000000        -0.015153137410
   17         13.382600000000         0.178520079304
   18          8.368800000000        -0.443431303642
   19          5.229450000000        -0.001804144881
   20          2.476850000000         0.630934324095
   21          1.301800000000         0.517188187192
   22          9.076854792000        -0.008498302960
   23          8.382236704300         0.010131793608
   24          0.706186923000         0.016328379058
   25          9.076854792000         0.053723785608
   26          8.382236704300        -0.064050235695
   27          0.706186923000        -0.103223236444
   28          9.076854792000        -0.564926015029
   29          8.382236704300         0.673512560652
   30          0.706186923000         1.085431545120
   31          0.645538603700        -0.036796793931
 S 17
    1      12715.600000000000         0.000012426094
    2       1913.300000000000         0.000089362093
    3        429.956000000000         0.000338412651
    4        100.978000000000         0.000735518742
    5         24.470800000000        -0.026549794355
    6         15.292200000000         0.142721305214
    7          9.554830000000        -0.151718851554
    8          5.966610000000        -0.161274778780
    9          2.389390000000         0.209724101786
   10          1.327647751600         0.546699251320
   11         17.195195341000         0.066153079471
   12         14.230303720000        -0.110036699773
   13          3.076033915300         0.212123436373
   14          0.699738667600        -0.736209194068
   15          0.331742348900        -2.328951010500
   16          0.160934318800         5.372667769946
   17          0.075883596200        -3.433205807177
 S 17
    1      12715.600000000000        -0.000036588726
    2       1913.300000000000        -0.000263127355
    3        429.956000000000        -0.000996458598
    4        100.978000000000        -0.002165740469
    5         24.470800000000         0.078176069253
    6         15.292200000000        -0.420243957108
    7          9.554830000000         0.446737300009
    8          5.966610000000         0.474874799630
    9          2.389390000000        -0.617534195777
   10          1.327647751600        -4.185600007811
   11         17.195195341000        -0.080148837416
   12         14.230303720000         0.133316750036
   13          3.076033915300        -0.257001593123
   14          0.699738667600        11.626481410670
   15          0.331742348900       -13.998516792412
   16          0.160934318800         9.469385043203
   17          0.075883596200        -2.843632627848
 S 17
    1      12715.600000000000         0.000005220494
    2       1913.300000000000         0.000037543116
    3        429.956000000000         0.000142175110
    4        100.978000000000         0.000309008713
    5         24.470800000000        -0.011154192713
    6         15.292200000000         0.059960575260
    7          9.554830000000        -0.063740655982
    8          5.966610000000        -0.067755325641
    9          2.389390000000         0.088110025130
   10          1.327647751600        13.099726370060
   11         17.195195341000        -1.965882663358
   12         14.230303720000         3.269979903389
   13          3.076033915300        -6.303709357042
   14          0.699738667600       -14.174416800194
   15          0.331742348900         9.195655914016
   16          0.160934318800        -4.430198232335
   17          0.075883596200         1.132612174209
 S 17
    1      12715.600000000000        -0.000153999460
    2       1913.300000000000        -0.001107485136
    3        429.956000000000        -0.004194026446
    4        100.978000000000        -0.009115454284
    5         24.470800000000         0.329037756666
    6         15.292200000000        -1.768778223575
    7          9.554830000000         1.880286901332
    8          5.966610000000         1.998715722863
    9          2.389390000000        -2.599159415210
   10          1.327647751600         8.333087299754
   11         17.195195341000        -1.183359515234
   12         14.230303720000         1.968358491290
   13          3.076033915300        -3.794506451461
   14          0.699738667600        -7.029331357696
   15          0.331742348900         4.083440212691
   16          0.160934318800        -1.905505706125
   17          0.075883596200         0.485360402568
 P 31
    1        131.708000000000         0.000679833394
    2         21.401600000000        -0.016778521757
    3         13.382600000000         0.197668836071
    4          8.368800000000        -0.490995466785
    5          5.229450000000        -0.001997664465
    6          2.476850000000         0.698610789146
    7          1.301800000000         0.572663800007
    8        131.708000000000        -0.000142257258
    9         21.401600000000         0.003510958003
   10         13.382600000000        -0.041362820401
   11          8.368800000000         0.102742332651
   12          5.229450000000         0.000418017519
   13          2.476850000000        -0.146186486328
   14          1.301800000000        -0.119831686070
   15        131.708000000000        -0.000023755374
   16         21.401600000000         0.000586290784
   17         13.382600000000        -0.006907129157
   18          8.368800000000         0.017156822351
   19          5.229450000000         0.000069804258
   20          2.476850000000        -0.024411510925
   21          1.301800000000        -0.020010553555
   22          9.076854792000        -0.649512179897
   23          8.382236704300         0.774357349138
   24          0.706186923000         1.247952811952
   25          9.076854792000         0.135912449223
   26          8.382236704300        -0.162036690231
   27          0.706186923000        -0.261138017787
   28          9.076854792000         0.022695861447
   29          8.382236704300        -0.027058317996
   30          0.706186923000        -0.043607133151
   31          0.645538603700        -2.906764512120
 P 31
    1        131.708000000000         0.000027947953
    2         21.401600000000        -0.000689765071
    3         13.382600000000         0.008126166342
    4          8.368800000000        -0.020184824858
    5          5.229450000000        -0.000082123991
    6          2.476850000000         0.028719891276
    7          1.301800000000         0.023542210240
    8        131.708000000000         0.000017860343
    9         21.401600000000        -0.000440799399
   10         13.382600000000         0.005193085867
   11          8.368800000000        -0.012899259540
   12          5.229450000000        -0.000052481935
   13          2.476850000000         0.018353655983
   14          1.301800000000         0.015044821154
   15        131.708000000000         0.000001278070
   16         21.401600000000        -0.000031543210
   17         13.382600000000         0.000371612570
   18          8.368800000000        -0.000923059451
   19          5.229450000000        -0.000003755560
   20          2.476850000000         0.001313371171
   21          1.301800000000         0.001076593917
   22          9.076854792000        -0.080571007652
   23          8.382236704300         0.096057862861
   24          0.706186923000         0.154806666716
   25          9.076854792000        -0.051489490068
   26          8.382236704300         0.061386477839
   27          0.706186923000         0.098930329415
   28          9.076854792000        -0.003684541758
   29          8.382236704300         0.004392761332
   30          0.706186923000         0.007079365700
   31          0.645538603700        -0.533928246993
 P 14
    1        131.708000000000         0.000202750632
    2         21.401600000000        -0.005003955254
    3         13.382600000000         0.058951916329
    4          8.368800000000        -0.146432408119
    5          5.229450000000        -0.000595774988
    6          2.476850000000         0.208350722385
    7          1.301800000000         0.170788825865
    8          9.076854792000        -0.226369709488
    9          8.382236704300         0.269881079354
   10          0.706186923000         0.434939827520
   11          0.645538603700        -1.050531476175
   12          0.283805009200        -0.503223900786
   13          0.131605185800         2.451349152106
   14          0.058958259800        -2.028362199913
 P 14
    1        131.708000000000         0.000644343005
    2         21.401600000000        -0.015902606772
    3         13.382600000000         0.187349625707
    4          8.368800000000        -0.465363275033
    5          5.229450000000        -0.001893377314
    6          2.476850000000         0.662140135304
    7          1.301800000000         0.542768150609
    8          9.076854792000        -0.826037415495
    9          8.382236704300         0.984813161554
   10          0.706186923000         1.587122993764
   11          0.645538603700        -5.221413459533
   12          0.283805009200         5.550737271541
   13          0.131605185800        -4.216640951854
   14          0.058958259800         1.416810536250
 P 14
    1        131.708000000000        -0.001149357577
    2         21.401600000000         0.028366539946
    3         13.382600000000        -0.334188018214
    4          8.368800000000         0.830099500045
    5          5.229450000000         0.003377343348
    6          2.476850000000        -1.181103505077
    7          1.301800000000        -0.968171737293
    8          9.076854792000        -5.420863474523
    9          8.382236704300         6.462827950105
   10          0.706186923000        10.415481072748
   11          0.645538603700        -9.407645146561
   12          0.283805009200         0.227283798789
   13          0.131605185800         0.053451775570
   14          0.058958259800        -0.033038342424
 end
  // -----------------------------------------------
  // The basis set
  // -----------------------------------------------
  BAS[ATNO] = new BFNGauss[NSH];
  // Basis function   1 L = s
  InitBFNGauss(BAS[ATNO][  0]);
  BAS[ATNO][  0].l  = 0;
  BAS[ATNO][  0].ng = 17;
  BAS[ATNO][  0].a[  0] =     12715.600000000000;     BAS[ATNO][  0].d[  0] =         0.000051063987;
  BAS[ATNO][  0].a[  1] =      1913.300000000000;     BAS[ATNO][  0].d[  1] =         0.000367226007;
  BAS[ATNO][  0].a[  2] =       429.956000000000;     BAS[ATNO][  0].d[  2] =         0.001390678336;
  BAS[ATNO][  0].a[  3] =       100.978000000000;     BAS[ATNO][  0].d[  3] =         0.003022552423;
  BAS[ATNO][  0].a[  4] =        24.470800000000;     BAS[ATNO][  0].d[  4] =        -0.109104147506;
  BAS[ATNO][  0].a[  5] =        15.292200000000;     BAS[ATNO][  0].d[  5] =         0.586501203282;
  BAS[ATNO][  0].a[  6] =         9.554830000000;     BAS[ATNO][  0].d[  6] =        -0.623475863423;
  BAS[ATNO][  0].a[  7] =         5.966610000000;     BAS[ATNO][  0].d[  7] =        -0.662745142864;
  BAS[ATNO][  0].a[  8] =         2.389390000000;     BAS[ATNO][  0].d[  8] =         0.861843561971;
  BAS[ATNO][  0].a[  9] =         1.327647751600;     BAS[ATNO][  0].d[  9] =         0.737240706290;
  BAS[ATNO][  0].a[ 10] =        17.195195341000;     BAS[ATNO][  0].d[ 10] =         0.027178792293;
  BAS[ATNO][  0].a[ 11] =        14.230303720000;     BAS[ATNO][  0].d[ 11] =        -0.045208244751;
  BAS[ATNO][  0].a[ 12] =         3.076033915300;     BAS[ATNO][  0].d[ 12] =         0.087150271217;
  BAS[ATNO][  0].a[ 13] =         0.699738667600;     BAS[ATNO][  0].d[ 13] =        -0.166676926133;
  BAS[ATNO][  0].a[ 14] =         0.331742348900;     BAS[ATNO][  0].d[ 14] =         0.110904550920;
  BAS[ATNO][  0].a[ 15] =         0.160934318800;     BAS[ATNO][  0].d[ 15] =        -0.060844201637;
  BAS[ATNO][  0].a[ 16] =         0.075883596200;     BAS[ATNO][  0].d[ 16] =         0.019867217675;

FINAL SINGLE POINT ENERGY      -253.247513147335

DIPOLE MOMENT
-------------
                                X             Y             Z
Electronic contribution:      0.00000      -0.00000       0.00000
Nuclear contribution   :      0.00000       0.00000       0.00000
                        -----------------------------------------
Total Dipole Moment    :      0.00000      -0.00000       0.00000
                        -----------------------------------------
Magnitude (a.u.)       :      0.00000
Magnitude (Debye)      :      0.00000

Rotational constants in cm-1:     0.000000     0.000000     0.000000
Rotational constants in MHz :     0.000000     0.000000     0.000000

                             ****ORCA TERMINATED NORMALLY****
TOTAL RUN TIME: 0 days 0 hours 0 minutes 1 seconds 233 msec
