                         Program Version 4.2.0 -  RELEASE  -
|  1> #
|  2> # 03_Li CCSD(T)/aug-cc-pvq(+d)z
|  3> #
|  4> ! HF aug-cc-pvq(+d)z tightscf
|  5>
|  6> *xyz 0 2
|  7>  Li 0.0 0.0 0.0
|  8> *
|  9>
| 10> %method
| 11> NewNCore Li 2 end
| 12> end
| 13>
| 14>
| 15>                          ****END OF INPUT****

CARTESIAN COORDINATES (ANGSTROEM)
---------------------------------
  Li     0.000000    0.000000    0.000000

 Total Charge           Charge          ....    0
 Multiplicity           Mult            ....    2
 Number of Electrons    NEL             ....    3
 Basis Dimension        Dim             ....   80

ORBITAL ENERGIES
----------------
                 SPIN UP ORBITALS
  NO   OCC          E(Eh)            E(eV)
   0   1.0000      -2.486611       -67.6641
   1   1.0000      -0.196365        -5.3434
   2   0.0000       0.011245         0.3060
   3   0.0000       0.011245         0.3060
   4   0.0000       0.011245         0.3060
   5   0.0000       0.014542         0.3957
   6   0.0000       0.034694         0.9441

                 SPIN DOWN ORBITALS
  NO   OCC          E(Eh)            E(eV)
   0   1.0000      -2.468740       -67.1778
   1   0.0000       0.004680         0.1274
   2   0.0000       0.015471         0.4210
   3   0.0000       0.015471         0.4210
   4   0.0000       0.015471         0.4210
   5   0.0000       0.031858         0.8669

MULLIKEN ATOMIC CHARGES AND SPIN POPULATIONS
--------------------------------------------
   0 Li:   -0.000000    1.000000
Sum of atomic charges         :   -0.0000000

LOEWDIN ATOMIC CHARGES AND SPIN POPULATIONS
-------------------------------------------
   0 Li:   -0.000000    1.000000

FINAL SINGLE POINT ENERGY        -7.432718455293

DIPOLE MOMENT
-------------
                                X             Y             Z
Electronic contribution:     -0.00000       0.00000       0.00000
Nuclear contribution   :      0.00000       0.00000       0.00000
                        -----------------------------------------
Total Dipole Moment    :     -0.00000       0.00000       0.00000
                        -----------------------------------------
Magnitude (a.u.)       :      0.00000
Magnitude (Debye)      :      0.00000

Rotational constants in cm-1:     0.000000     0.000000     0.000000
Rotational constants in MHz :     0.000000     0.000000     0.000000

                             ****ORCA TERMINATED NORMALLY****
TOTAL RUN TIME: 0 days 0 hours 0 minutes 2 seconds 737 msec
