                         Program Version 4.2.0 -  RELEASE  -
|  1> #
|  2> # 07_N CCSD(T)/aug-cc-pvq(+d)z
|  3> #
|  4> ! CCSD(T) aug-cc-pvq(+d)z tightscf
|  5>
|  6> *xyz 0 4
|  7>  N 0.0 0.0 0.0
|  8> *
|  9>
| 10> %maxcore 5000
| 11>
| 12> %pal
| 13> nprocs 10
| 14> end
| 15>
| 16>
| 17>                          ****END OF INPUT****

CARTESIAN COORDINATES (ANGSTROEM)
---------------------------------
  N      0.000000    0.000000    0.000000

 Total Charge           Charge          ....    0
 Multiplicity           Mult            ....    4
 Number of Electrons    NEL             ....    7
 Basis Dimension        Dim             ....   80

ORBITAL ENERGIES
----------------
                 SPIN UP ORBITALS
  NO   OCC          E(Eh)            E(eV)
   0   1.0000     -15.671465      -426.4422
   1   1.0000      -1.163183       -31.6518
   2   1.0000      -0.570898       -15.5349
   3   1.0000      -0.570898       -15.5349
   4   1.0000      -0.570898       -15.5349
   5   0.0000       0.105889         2.8814
   6   0.0000       0.111982         3.0472
   7   0.0000       0.111982         3.0472
   8   0.0000       0.111982         3.0472
   9   0.0000       0.339851         9.2478

                 SPIN DOWN ORBITALS
  NO   OCC          E(Eh)            E(eV)
   0   1.0000     -15.581219      -423.9865
   1   1.0000      -0.726065       -19.7572
   2   0.0000       0.071984         1.9588
   3   0.0000       0.071984         1.9588
   4   0.0000       0.071984         1.9588
   5   0.0000       0.121308         3.3009
   6   0.0000       0.200099         5.4450

E(0)                                       ...    -54.403819521
E(0)                                       ...    -54.403819521
E(CORR)                                    ...     -0.118791668
E(TOT)                                     ...    -54.522611189
E(CCSD(T))                                 ...    -54.525510935

MULLIKEN ATOMIC CHARGES AND SPIN DENSITIES
------------------------------------------
   0 N :   -0.000000    3.000000
Sum of atomic charges       :   -0.0000000

LOEWDIN ATOMIC CHARGES AND SPIN DENSITIES
-----------------------------------------
   0 N :   -0.000000    3.000000

FINAL SINGLE POINT ENERGY       -54.525510935169

DIPOLE MOMENT
-------------
                                X             Y             Z
Electronic contribution:      0.00000      -0.00000       0.00000
Nuclear contribution   :      0.00000       0.00000       0.00000
                        -----------------------------------------
Total Dipole Moment    :      0.00000      -0.00000       0.00000
                        -----------------------------------------
Magnitude (a.u.)       :      0.00000
Magnitude (Debye)      :      0.00000

Rotational constants in cm-1:     0.000000     0.000000     0.000000
Rotational constants in MHz :     0.000000     0.000000     0.000000

                             ****ORCA TERMINATED NORMALLY****
TOTAL RUN TIME: 0 days 0 hours 0 minutes 12 seconds 81 msec
