                         Program Version 4.2.0 -  RELEASE  -
|  1> #
|  2> # 08_O CCSD(T)/aug-cc-pvq(+d)z
|  3> #
|  4> ! CCSD(T) aug-cc-pvq(+d)z tightscf
|  5>
|  6> *xyz 0 3
|  7>  O 0.0 0.0 0.0
|  8> *
|  9>
| 10> %maxcore 5000
| 11>
| 12> %pal
| 13> nprocs 15
| 14> end
| 15>
| 16>
| 17>                          ****END OF INPUT****

CARTESIAN COORDINATES (ANGSTROEM)
---------------------------------
  O      0.000000    0.000000    0.000000

 Total Charge           Charge          ....    0
 Multiplicity           Mult            ....    3
 Number of Electrons    NEL             ....    8
 Basis Dimension        Dim             ....   80

ORBITAL ENERGIES
----------------
                 SPIN UP ORBITALS
  NO   OCC          E(Eh)            E(eV)
   0   1.0000     -20.708587      -563.5093
   1   1.0000      -1.418674       -38.6041
   2   1.0000      -0.711081       -19.3495
   3   1.0000      -0.711081       -19.3495
   4   1.0000      -0.611668       -16.6443
   5   0.0000       0.132279         3.5995
   6   0.0000       0.132279         3.5995
   7   0.0000       0.136137         3.7045
   8   0.0000       0.140006         3.8098
   9   0.0000       0.460958        12.5433

                 SPIN DOWN ORBITALS
  NO   OCC          E(Eh)            E(eV)
   0   1.0000     -20.629881      -561.3676
   1   1.0000      -1.075945       -29.2780
   2   1.0000      -0.521728       -14.1969
   3   0.0000       0.062468         1.6998
   4   0.0000       0.062468         1.6998
   5   0.0000       0.143166         3.8958
   6   0.0000       0.146810         3.9949
   7   0.0000       0.197792         5.3822

E(0)                                       ...    -74.817625058
E(0)                                       ...    -74.817625058
E(CORR)                                    ...     -0.173773409
E(TOT)                                     ...    -74.991398467
E(CCSD(T))                                 ...    -74.995267565

MULLIKEN ATOMIC CHARGES AND SPIN DENSITIES
------------------------------------------
   0 O :    0.000000    2.000000
Sum of atomic charges       :    0.0000000

LOEWDIN ATOMIC CHARGES AND SPIN DENSITIES
-----------------------------------------
   0 O :   -0.000000    2.000000

FINAL SINGLE POINT ENERGY       -74.995267565422

DIPOLE MOMENT
-------------
                                X             Y             Z
Electronic contribution:      0.00000       0.00000       0.00000
Nuclear contribution   :      0.00000       0.00000       0.00000
                        -----------------------------------------
Total Dipole Moment    :      0.00000       0.00000       0.00000
                        -----------------------------------------
Magnitude (a.u.)       :      0.00000
Magnitude (Debye)      :      0.00000

Rotational constants in cm-1:     0.000000     0.000000     0.000000
Rotational constants in MHz :     0.000000     0.000000     0.000000

                             ****ORCA TERMINATED NORMALLY****
TOTAL RUN TIME: 0 days 0 hours 0 minutes 14 seconds 238 msec
