                         Program Version 4.2.0 -  RELEASE  -
|  1> #
|  2> # 11_Na CCSD(T)/aug-cc-pvq(+d)z
|  3> #
|  4> ! HF aug-cc-pvq(+d)z tightscf
|  5>
|  6> *xyz 0 2
|  7>  Na 0.0 0.0 0.0
|  8> *
|  9>
| 10> %maxcore 5000
| 11>
| 12> %pal
| 13> nprocs 24
| 14> end
| 15>
| 16> %method
| 17> NewNCore Na 10 end
| 18> end
| 19>
| 20>
| 21>                          ****END OF INPUT****

CARTESIAN COORDINATES (ANGSTROEM)
---------------------------------
  Na     0.000000    0.000000    0.000000

 Total Charge           Charge          ....    0
 Multiplicity           Mult            ....    2
 Number of Electrons    NEL             ....   11
 Basis Dimension        Dim             ....   84

ORBITAL ENERGIES
----------------
                 SPIN UP ORBITALS
  NO   OCC          E(Eh)            E(eV)
   0   1.0000     -40.479964     -1101.5158
   1   1.0000      -2.800538       -76.2065
   2   1.0000      -1.519149       -41.3381
   3   1.0000      -1.519149       -41.3381
   4   1.0000      -1.519149       -41.3381
   5   1.0000      -0.182189        -4.9576
   6   0.0000       0.010528         0.2865
   7   0.0000       0.010528         0.2865
   8   0.0000       0.010528         0.2865
   9   0.0000       0.010596         0.2883
  10   0.0000       0.031615         0.8603

                 SPIN DOWN ORBITALS
  NO   OCC          E(Eh)            E(eV)
   0   1.0000     -40.477292     -1101.4431
   1   1.0000      -2.793524       -76.0157
   2   1.0000      -1.517031       -41.2805
   3   1.0000      -1.517031       -41.2805
   4   1.0000      -1.517031       -41.2805
   5   0.0000       0.003583         0.0975
   6   0.0000       0.013646         0.3713
   7   0.0000       0.013646         0.3713
   8   0.0000       0.013646         0.3713
   9   0.0000       0.023551         0.6409

MULLIKEN ATOMIC CHARGES AND SPIN POPULATIONS
--------------------------------------------
   0 Na:   -0.000000    1.000000
Sum of atomic charges         :   -0.0000000

LOEWDIN ATOMIC CHARGES AND SPIN POPULATIONS
-------------------------------------------
   0 Na:   -0.000000    1.000000

FINAL SINGLE POINT ENERGY      -161.858716092913

DIPOLE MOMENT
-------------
                                X             Y             Z
Electronic contribution:      0.00000       0.00000       0.00000
Nuclear contribution   :      0.00000       0.00000       0.00000
                        -----------------------------------------
Total Dipole Moment    :      0.00000       0.00000       0.00000
                        -----------------------------------------
Magnitude (a.u.)       :      0.00000
Magnitude (Debye)      :      0.00000

Rotational constants in cm-1:     0.000000     0.000000     0.000000
Rotational constants in MHz :     0.000000     0.000000     0.000000

                             ****ORCA TERMINATED NORMALLY****
TOTAL RUN TIME: 0 days 0 hours 0 minutes 6 seconds 136 msec
