                         Program Version 4.2.0 -  RELEASE  -
|  1> #
|  2> # 13_Al CCSD(T)/aug-cc-pvq(+d)z
|  3> #
|  4> ! CCSD(T) aug-cc-pvq(+d)z tightscf
|  5>
|  6> *xyz 0 2
|  7>  Al 0.0 0.0 0.0
|  8> *
|  9>
| 10> %maxcore 5000
| 11>
| 12> %pal
| 13> nprocs 3
| 14> end
| 15>
| 16>
| 17>                          ****END OF INPUT****

CARTESIAN COORDINATES (ANGSTROEM)
---------------------------------
  Al     0.000000    0.000000    0.000000

 Total Charge           Charge          ....    0
 Multiplicity           Mult            ....    2
 Number of Electrons    NEL             ....   13
 Basis Dimension        Dim             ....   89

ORBITAL ENERGIES
----------------
                 SPIN UP ORBITALS
  NO   OCC          E(Eh)            E(eV)
   0   1.0000     -58.500845     -1591.8889
   1   1.0000      -4.910768      -133.6288
   2   1.0000      -3.224094       -87.7321
   3   1.0000      -3.218093       -87.5688
   4   1.0000      -3.218093       -87.5688
   5   1.0000      -0.425554       -11.5799
   6   1.0000      -0.218434        -5.9439
   7   0.0000       0.009418         0.2563
   8   0.0000       0.009418         0.2563
   9   0.0000       0.035340         0.9617
  10   0.0000       0.036300         0.9878
  11   0.0000       0.047833         1.3016

                 SPIN DOWN ORBITALS
  NO   OCC          E(Eh)            E(eV)
   0   1.0000     -58.498277     -1591.8190
   1   1.0000      -4.907477      -133.5392
   2   1.0000      -3.216782       -87.5331
   3   1.0000      -3.216782       -87.5331
   4   1.0000      -3.207336       -87.2760
   5   1.0000      -0.363471        -9.8905
   6   0.0000       0.013211         0.3595
   7   0.0000       0.013211         0.3595
   8   0.0000       0.026279         0.7151
   9   0.0000       0.039144         1.0652
  10   0.0000       0.051041         1.3889

E(0)                                       ...   -241.880448644
E(0)                                       ...   -241.880448644
E(CORR)                                    ...     -0.052084331
E(TOT)                                     ...   -241.932532976
E(CCSD(T))                                 ...   -241.933818561

MULLIKEN ATOMIC CHARGES AND SPIN DENSITIES
------------------------------------------
   0 Al:    0.000000    1.000000
Sum of atomic charges       :    0.0000000

LOEWDIN ATOMIC CHARGES AND SPIN DENSITIES
-----------------------------------------
   0 Al:    0.000000    1.000000

FINAL SINGLE POINT ENERGY      -241.933818561193

DIPOLE MOMENT
-------------
                                X             Y             Z
Electronic contribution:      0.00000       0.00000      -0.00000
Nuclear contribution   :      0.00000       0.00000       0.00000
                        -----------------------------------------
Total Dipole Moment    :      0.00000       0.00000      -0.00000
                        -----------------------------------------
Magnitude (a.u.)       :      0.00000
Magnitude (Debye)      :      0.00000

Rotational constants in cm-1:     0.000000     0.000000     0.000000
Rotational constants in MHz :     0.000000     0.000000     0.000000

                             ****ORCA TERMINATED NORMALLY****
TOTAL RUN TIME: 0 days 0 hours 0 minutes 32 seconds 478 msec
