                         Program Version 4.2.0 -  RELEASE  -
|  1> #
|  2> # 14_Si CCSD(T)/aug-cc-pvq(+d)z
|  3> #
|  4> ! CCSD(T) aug-cc-pvq(+d)z tightscf
|  5>
|  6> *xyz 0 3
|  7>  Si 0.0 0.0 0.0
|  8> *
|  9>
| 10> %maxcore 5000
| 11>
| 12> %pal
| 13> nprocs 6
| 14> end
| 15>
| 16>
| 17>                          ****END OF INPUT****

CARTESIAN COORDINATES (ANGSTROEM)
---------------------------------
  Si     0.000000    0.000000    0.000000

 Total Charge           Charge          ....    0
 Multiplicity           Mult            ....    3
 Number of Electrons    NEL             ....   14
 Basis Dimension        Dim             ....   89

ORBITAL ENERGIES
----------------
                 SPIN UP ORBITALS
  NO   OCC          E(Eh)            E(eV)
   0   1.0000     -68.815765     -1872.5722
   1   1.0000      -6.160843      -167.6451
   2   1.0000      -4.268141      -116.1420
   3   1.0000      -4.268141      -116.1420
   4   1.0000      -4.258478      -115.8791
   5   1.0000      -0.619884       -16.8679
   6   1.0000      -0.301359        -8.2004
   7   1.0000      -0.301359        -8.2004
   8   0.0000      -0.010131        -0.2757
   9   0.0000       0.051732         1.4077
  10   0.0000       0.054083         1.4717
  11   0.0000       0.054083         1.4717
  12   0.0000       0.062438         1.6990

                 SPIN DOWN ORBITALS
  NO   OCC          E(Eh)            E(eV)
   0   1.0000     -68.806871     -1872.3301
   1   1.0000      -6.149805      -167.3447
   2   1.0000      -4.253799      -115.7517
   3   1.0000      -4.240521      -115.3905
   4   1.0000      -4.240521      -115.3905
   5   1.0000      -0.462903       -12.5962
   6   0.0000       0.005115         0.1392
   7   0.0000       0.031562         0.8588
   8   0.0000       0.031562         0.8588
   9   0.0000       0.058769         1.5992
  10   0.0000       0.067534         1.8377

E(0)                                       ...   -288.858464437
E(0)                                       ...   -288.858464437
E(CORR)                                    ...     -0.076646178
E(TOT)                                     ...   -288.935110614
E(CCSD(T))                                 ...   -288.937988671

MULLIKEN ATOMIC CHARGES AND SPIN DENSITIES
------------------------------------------
   0 Si:   -0.000000    2.000000
Sum of atomic charges       :   -0.0000000

LOEWDIN ATOMIC CHARGES AND SPIN DENSITIES
-----------------------------------------
   0 Si:   -0.000000    2.000000

FINAL SINGLE POINT ENERGY      -288.937988671212

DIPOLE MOMENT
-------------
                                X             Y             Z
Electronic contribution:      0.00000       0.00000      -0.00000
Nuclear contribution   :      0.00000       0.00000       0.00000
                        -----------------------------------------
Total Dipole Moment    :      0.00000       0.00000      -0.00000
                        -----------------------------------------
Magnitude (a.u.)       :      0.00000
Magnitude (Debye)      :      0.00000

Rotational constants in cm-1:     0.000000     0.000000     0.000000
Rotational constants in MHz :     0.000000     0.000000     0.000000

                             ****ORCA TERMINATED NORMALLY****
TOTAL RUN TIME: 0 days 0 hours 0 minutes 20 seconds 188 msec
