                         Program Version 4.2.0 -  RELEASE  -
|  1> #
|  2> # 15_P CCSD(T)/aug-cc-pvq(+d)z
|  3> #
|  4> ! CCSD(T) aug-cc-pvq(+d)z tightscf
|  5>
|  6> *xyz 0 4
|  7>  P 0.0 0.0 0.0
|  8> *
|  9>
| 10> %maxcore 5000
| 11>
| 12> %pal
| 13> nprocs 10
| 14> end
| 15>
| 16>
| 17>                          ****END OF INPUT****

CARTESIAN COORDINATES (ANGSTROEM)
---------------------------------
  P      0.000000    0.000000    0.000000

 Total Charge           Charge          ....    0
 Multiplicity           Mult            ....    4
 Number of Electrons    NEL             ....   15
 Basis Dimension        Dim             ....   89

ORBITAL ENERGIES
----------------
                 SPIN UP ORBITALS
  NO   OCC          E(Eh)            E(eV)
   0   1.0000     -79.979343     -2176.3486
   1   1.0000      -7.522144      -204.6879
   2   1.0000      -5.420888      -147.5099
   3   1.0000      -5.420888      -147.5099
   4   1.0000      -5.420888      -147.5099
   5   1.0000      -0.836248       -22.7555
   6   1.0000      -0.392087       -10.6692
   7   1.0000      -0.392087       -10.6692
   8   1.0000      -0.392087       -10.6692
   9   0.0000       0.065635         1.7860
  10   0.0000       0.070579         1.9205
  11   0.0000       0.070579         1.9205
  12   0.0000       0.070579         1.9205
  13   0.0000       0.154331         4.1995

                 SPIN DOWN ORBITALS
  NO   OCC          E(Eh)            E(eV)
   0   1.0000     -79.959908     -2175.8197
   1   1.0000      -7.499812      -204.0802
   2   1.0000      -5.380834      -146.4199
   3   1.0000      -5.380834      -146.4199
   4   1.0000      -5.380834      -146.4199
   5   1.0000      -0.556353       -15.1391
   6   0.0000       0.028571         0.7775
   7   0.0000       0.028571         0.7775
   8   0.0000       0.028571         0.7775
   9   0.0000       0.077447         2.1075
  10   0.0000       0.104487         2.8432

E(0)                                       ...   -340.718741192
E(0)                                       ...   -340.718741192
E(CORR)                                    ...     -0.105240761
E(TOT)                                     ...   -340.823981953
E(CCSD(T))                                 ...   -340.828627693

MULLIKEN ATOMIC CHARGES AND SPIN DENSITIES
------------------------------------------
   0 P :    0.000000    3.000000
Sum of atomic charges       :    0.0000000

LOEWDIN ATOMIC CHARGES AND SPIN DENSITIES
-----------------------------------------
   0 P :    0.000000    3.000000

FINAL SINGLE POINT ENERGY      -340.828627693274

DIPOLE MOMENT
-------------
                                X             Y             Z
Electronic contribution:      0.00000       0.00000       0.00000
Nuclear contribution   :      0.00000       0.00000       0.00000
                        -----------------------------------------
Total Dipole Moment    :      0.00000       0.00000       0.00000
                        -----------------------------------------
Magnitude (a.u.)       :      0.00000
Magnitude (Debye)      :      0.00000

Rotational constants in cm-1:     0.000000     0.000000     0.000000
Rotational constants in MHz :     0.000000     0.000000     0.000000

                             ****ORCA TERMINATED NORMALLY****
TOTAL RUN TIME: 0 days 0 hours 0 minutes 16 seconds 489 msec
