                         Program Version 4.2.0 -  RELEASE  -
|  1> #
|  2> # 16_S CCSD(T)/aug-cc-pvq(+d)z
|  3> #
|  4> ! CCSD(T) aug-cc-pvq(+d)z tightscf
|  5>
|  6> *xyz 0 3
|  7>  S 0.0 0.0 0.0
|  8> *
|  9>
| 10> %maxcore 5000
| 11>
| 12> %pal
| 13> nprocs 15
| 14> end
| 15>
| 16>
| 17>                          ****END OF INPUT****

CARTESIAN COORDINATES (ANGSTROEM)
---------------------------------
  S      0.000000    0.000000    0.000000

 Total Charge           Charge          ....    0
 Multiplicity           Mult            ....    3
 Number of Electrons    NEL             ....   16
 Basis Dimension        Dim             ....   89

ORBITAL ENERGIES
----------------
                 SPIN UP ORBITALS
  NO   OCC          E(Eh)            E(eV)
   0   1.0000     -92.012635     -2503.7911
   1   1.0000      -9.013103      -245.2590
   2   1.0000      -6.705810      -182.4744
   3   1.0000      -6.705810      -182.4744
   4   1.0000      -6.685325      -181.9169
   5   1.0000      -0.989881       -26.9360
   6   1.0000      -0.487012       -13.2523
   7   1.0000      -0.487012       -13.2523
   8   1.0000      -0.415530       -11.3071
   9   0.0000       0.078668         2.1407
  10   0.0000       0.078668         2.1407
  11   0.0000       0.080854         2.2002
  12   0.0000       0.085169         2.3176
  13   0.0000       0.188623         5.1327

                 SPIN DOWN ORBITALS
  NO   OCC          E(Eh)            E(eV)
   0   1.0000     -91.994816     -2503.3062
   1   1.0000      -8.994086      -244.7415
   2   1.0000      -6.675334      -181.6451
   3   1.0000      -6.659631      -181.2178
   4   1.0000      -6.659631      -181.2178
   5   1.0000      -0.774033       -21.0625
   6   1.0000      -0.379581       -10.3289
   7   0.0000       0.001139         0.0310
   8   0.0000       0.001139         0.0310
   9   0.0000       0.086366         2.3501
  10   0.0000       0.088925         2.4198
  11   0.0000       0.100912         2.7459

E(0)                                       ...   -397.512745140
E(0)                                       ...   -397.512745140
E(CORR)                                    ...     -0.150013292
E(TOT)                                     ...   -397.662758432
E(CCSD(T))                                 ...   -397.668698455

MULLIKEN ATOMIC CHARGES AND SPIN DENSITIES
------------------------------------------
   0 S :   -0.000000    2.000000
Sum of atomic charges       :   -0.0000000

LOEWDIN ATOMIC CHARGES AND SPIN DENSITIES
-----------------------------------------
   0 S :   -0.000000    2.000000

FINAL SINGLE POINT ENERGY      -397.668698455287

DIPOLE MOMENT
-------------
                                X             Y             Z
Electronic contribution:     -0.00000       0.00000      -0.00000
Nuclear contribution   :      0.00000       0.00000       0.00000
                        -----------------------------------------
Total Dipole Moment    :     -0.00000       0.00000      -0.00000
                        -----------------------------------------
Magnitude (a.u.)       :      0.00000
Magnitude (Debye)      :      0.00000

Rotational constants in cm-1:     0.000000     0.000000     0.000000
Rotational constants in MHz :     0.000000     0.000000     0.000000

                             ****ORCA TERMINATED NORMALLY****
TOTAL RUN TIME: 0 days 0 hours 0 minutes 18 seconds 266 msec
