                         Program Version 4.2.0 -  RELEASE  -
|  1> #
|  2> # 17_Cl CCSD(T)/aug-cc-pvq(+d)z
|  3> #
|  4> ! CCSD(T) aug-cc-pvq(+d)z tightscf
|  5>
|  6> *xyz 0 2
|  7>  Cl 0.0 0.0 0.0
|  8> *
|  9>
| 10> %maxcore 5000
| 11>
| 12> %pal
| 13> nprocs 21
| 14> end
| 15>
| 16>
| 17>                          ****END OF INPUT****

CARTESIAN COORDINATES (ANGSTROEM)
---------------------------------
  Cl     0.000000    0.000000    0.000000

 Total Charge           Charge          ....    0
 Multiplicity           Mult            ....    2
 Number of Electrons    NEL             ....   17
 Basis Dimension        Dim             ....   89

ORBITAL ENERGIES
----------------
                 SPIN UP ORBITALS
  NO   OCC          E(Eh)            E(eV)
   0   1.0000    -104.889346     -2854.1842
   1   1.0000     -10.612459      -288.7797
   2   1.0000      -8.098052      -220.3592
   3   1.0000      -8.073757      -219.6981
   4   1.0000      -8.073757      -219.6981
   5   1.0000      -1.136157       -30.9164
   6   1.0000      -0.581839       -15.8326
   7   1.0000      -0.502531       -13.6746
   8   1.0000      -0.502531       -13.6746
   9   0.0000       0.090619         2.4659
  10   0.0000       0.097093         2.6420
  11   0.0000       0.097093         2.6420
  12   0.0000       0.099923         2.7190
  13   0.0000       0.239471         6.5163

                 SPIN DOWN ORBITALS
  NO   OCC          E(Eh)            E(eV)
   0   1.0000    -104.878102     -2853.8782
   1   1.0000     -10.601082      -288.4701
   2   1.0000      -8.067719      -219.5338
   3   1.0000      -8.067719      -219.5338
   4   1.0000      -8.048649      -219.0149
   5   1.0000      -1.014511       -27.6062
   6   1.0000      -0.480948       -13.0873
   7   1.0000      -0.480948       -13.0873
   8   0.0000      -0.040904        -1.1131
   9   0.0000       0.097686         2.6582
  10   0.0000       0.097686         2.6582
  11   0.0000       0.104173         2.8347
  12   0.0000       0.107002         2.9117

E(0)                                       ...   -459.489242150
E(0)                                       ...   -459.489242150
E(CORR)                                    ...     -0.199190390
E(TOT)                                     ...   -459.688432540
E(CCSD(T))                                 ...   -459.695891209

MULLIKEN ATOMIC CHARGES AND SPIN DENSITIES
------------------------------------------
   0 Cl:   -0.000000    1.000000
Sum of atomic charges       :   -0.0000000

LOEWDIN ATOMIC CHARGES AND SPIN DENSITIES
-----------------------------------------
   0 Cl:   -0.000000    1.000000

FINAL SINGLE POINT ENERGY      -459.695891208633

DIPOLE MOMENT
-------------
                                X             Y             Z
Electronic contribution:     -0.00000      -0.00000      -0.00000
Nuclear contribution   :      0.00000       0.00000       0.00000
                        -----------------------------------------
Total Dipole Moment    :     -0.00000      -0.00000      -0.00000
                        -----------------------------------------
Magnitude (a.u.)       :      0.00000
Magnitude (Debye)      :      0.00000

Rotational constants in cm-1:     0.000000     0.000000     0.000000
Rotational constants in MHz :     0.000000     0.000000     0.000000

                             ****ORCA TERMINATED NORMALLY****
TOTAL RUN TIME: 0 days 0 hours 0 minutes 24 seconds 760 msec
