                         Program Version 4.2.0 -  RELEASE  -
|  1> #
|  2> # 18_Ar CCSD(T)/aug-cc-pvq(+d)z
|  3> #
|  4> ! CCSD(T) aug-cc-pvq(+d)z tightscf
|  5>
|  6> *xyz 0 1
|  7>  Ar 0.0 0.0 0.0
|  8> *
|  9>
| 10> %maxcore 5000
| 11>
| 12> %pal
| 13> nprocs 10
| 14> end
| 15>
| 16>
| 17>                          ****END OF INPUT****

CARTESIAN COORDINATES (ANGSTROEM)
---------------------------------
  Ar     0.000000    0.000000    0.000000

 Total Charge           Charge          ....    0
 Multiplicity           Mult            ....    1
 Number of Electrons    NEL             ....   18
 Basis Dimension        Dim             ....   89

ORBITAL ENERGIES
----------------

  NO   OCC          E(Eh)            E(eV)
   0   2.0000    -118.610473     -3227.5551
   1   2.0000     -12.322272      -335.3061
   2   2.0000      -9.571561      -260.4554
   3   2.0000      -9.571561      -260.4554
   4   2.0000      -9.571561      -260.4554
   5   2.0000      -1.277429       -34.7606
   6   2.0000      -0.591074       -16.0840
   7   2.0000      -0.591074       -16.0840
   8   2.0000      -0.591074       -16.0840
   9   0.0000       0.109561         2.9813
  10   0.0000       0.109561         2.9813
  11   0.0000       0.109561         2.9813
  12   0.0000       0.120104         3.2682
  13   0.0000       0.296725         8.0743

E(0)                                       ...   -526.816804872
E(0)                                       ...   -526.816804872
E(CORR)                                    ...     -0.250893476
E(TOT)                                     ...   -527.067698348
E(CCSD(T))                                 ...   -527.076686603

MULLIKEN ATOMIC CHARGES
-----------------------
   0 Ar:   -0.000000
Sum of atomic charges:   -0.0000000

LOEWDIN ATOMIC CHARGES
----------------------
   0 Ar:   -0.000000

FINAL SINGLE POINT ENERGY      -527.076686603043

DIPOLE MOMENT
-------------
                                X             Y             Z
Electronic contribution:      0.00000      -0.00000       0.00000
Nuclear contribution   :      0.00000       0.00000       0.00000
                        -----------------------------------------
Total Dipole Moment    :      0.00000      -0.00000       0.00000
                        -----------------------------------------
Magnitude (a.u.)       :      0.00000
Magnitude (Debye)      :      0.00000

Rotational constants in cm-1:     0.000000     0.000000     0.000000
Rotational constants in MHz :     0.000000     0.000000     0.000000

                             ****ORCA TERMINATED NORMALLY****
TOTAL RUN TIME: 0 days 0 hours 0 minutes 9 seconds 330 msec
