                         Program Version 4.2.0 -  RELEASE  -
|  1> #
|  2> # 21_Sc CCSD(T)/aug-cc-pvq(+d)z
|  3> #
|  4> ! CCSD(T) aug-cc-pvq(+d)z tightscf
|  5>
|  6> *xyz 0 2
|  7>  Sc 0.0 0.0 0.0
|  8> *
|  9>
| 10> %maxcore 5000
| 11>
| 12> %pal
| 13> nprocs 24
| 14> end
| 15>
| 16>
| 17>                          ****END OF INPUT****

CARTESIAN COORDINATES (ANGSTROEM)
---------------------------------
  Sc     0.000000    0.000000    0.000000

 Total Charge           Charge          ....    0
 Multiplicity           Mult            ....    2
 Number of Electrons    NEL             ....   21
 Basis Dimension        Dim             ....  140

ORBITAL ENERGIES
----------------
                 SPIN UP ORBITALS
  NO   OCC          E(Eh)            E(eV)
   0   1.0000    -165.896884     -4514.2837
   1   1.0000     -19.084848      -519.3251
   2   1.0000     -15.673936      -426.5095
   3   1.0000     -15.671679      -426.4481
   4   1.0000     -15.671677      -426.4480
   5   1.0000      -2.593287       -70.5669
   6   1.0000      -1.620992       -44.1094
   7   1.0000      -1.620940       -44.1080
   8   1.0000      -1.581854       -43.0444
   9   1.0000      -0.353301        -9.6138
  10   1.0000      -0.216077        -5.8798
  11   0.0000       0.012571         0.3421
  12   0.0000       0.012572         0.3421
  13   0.0000       0.012810         0.3486
  14   0.0000       0.021770         0.5924
  15   0.0000       0.029289         0.7970

                 SPIN DOWN ORBITALS
  NO   OCC          E(Eh)            E(eV)
   0   1.0000    -165.897059     -4514.2885
   1   1.0000     -19.072131      -518.9791
   2   1.0000     -15.671584      -426.4455
   3   1.0000     -15.653860      -425.9632
   4   1.0000     -15.653835      -425.9625
   5   1.0000      -2.538768       -69.0834
   6   1.0000      -1.575206       -42.8635
   7   1.0000      -1.521152       -41.3927
   8   1.0000      -1.521079       -41.3907
   9   1.0000      -0.204519        -5.5653
  10   0.0000       0.010831         0.2947
  11   0.0000       0.014046         0.3822
  12   0.0000       0.014049         0.3823
  13   0.0000       0.022295         0.6067
  14   0.0000       0.029269         0.7964

E(0)                                       ...   -759.740629836
E(0)                                       ...   -759.740629836
E(CORR)                                    ...     -0.326766034
E(TOT)                                     ...   -760.067395870
E(CCSD(T))                                 ...   -760.078834742

MULLIKEN ATOMIC CHARGES AND SPIN DENSITIES
------------------------------------------
   0 Sc:   -0.000000    1.000000
Sum of atomic charges       :   -0.0000000

LOEWDIN ATOMIC CHARGES AND SPIN DENSITIES
-----------------------------------------
   0 Sc:   -0.000000    1.000000

FINAL SINGLE POINT ENERGY      -760.078834742246

DIPOLE MOMENT
-------------
                                X             Y             Z
Electronic contribution:     -0.00000      -0.00000       0.00000
Nuclear contribution   :      0.00000       0.00000       0.00000
                        -----------------------------------------
Total Dipole Moment    :     -0.00000      -0.00000       0.00000
                        -----------------------------------------
Magnitude (a.u.)       :      0.00000
Magnitude (Debye)      :      0.00000

Rotational constants in cm-1:     0.000000     0.000000     0.000000
Rotational constants in MHz :     0.000000     0.000000     0.000000

                             ****ORCA TERMINATED NORMALLY****
TOTAL RUN TIME: 0 days 0 hours 21 minutes 30 seconds 522 msec
