                         Program Version 4.2.0 -  RELEASE  -
|  1> #
|  2> # 22_Ti CCSD(T)/aug-cc-pvq(+d)z
|  3> #
|  4> ! CCSD(T) aug-cc-pvq(+d)z tightscf
|  5>
|  6> *xyz 0 3
|  7>  Ti 0.0 0.0 0.0
|  8> *
|  9>
| 10> %maxcore 5000
| 11>
| 12> %pal
| 13> nprocs 24
| 14> end
| 15>
| 16>
| 17>                          ****END OF INPUT****

CARTESIAN COORDINATES (ANGSTROEM)
---------------------------------
  Ti     0.000000    0.000000    0.000000

 Total Charge           Charge          ....    0
 Multiplicity           Mult            ....    3
 Number of Electrons    NEL             ....   22
 Basis Dimension        Dim             ....  140

ORBITAL ENERGIES
----------------
                 SPIN UP ORBITALS
  NO   OCC          E(Eh)            E(eV)
   0   1.0000    -183.270261     -4987.0373
   1   1.0000     -21.437741      -583.3506
   2   1.0000     -17.805966      -484.5250
   3   1.0000     -17.805966      -484.5250
   4   1.0000     -17.805965      -484.5250
   5   1.0000      -2.936313       -79.9011
   6   1.0000      -1.874348       -51.0036
   7   1.0000      -1.874347       -51.0036
   8   1.0000      -1.874345       -51.0035
   9   1.0000      -0.449348       -12.2274
  10   1.0000      -0.449348       -12.2274
  11   1.0000      -0.232023        -6.3137
  12   0.0000       0.014125         0.3844
  13   0.0000       0.014127         0.3844
  14   0.0000       0.014127         0.3844
  15   0.0000       0.022747         0.6190
  16   0.0000       0.039376         1.0715

                 SPIN DOWN ORBITALS
  NO   OCC          E(Eh)            E(eV)
   0   1.0000    -183.270302     -4987.0385
   1   1.0000     -21.404423      -582.4439
   2   1.0000     -17.772789      -483.6222
   3   1.0000     -17.772788      -483.6221
   4   1.0000     -17.772788      -483.6221
   5   1.0000      -2.808258       -76.4166
   6   1.0000      -1.715822       -46.6899
   7   1.0000      -1.715820       -46.6898
   8   1.0000      -1.715819       -46.6898
   9   1.0000      -0.210035        -5.7153
  10   0.0000       0.014627         0.3980
  11   0.0000       0.014627         0.3980
  12   0.0000       0.014628         0.3981
  13   0.0000       0.023830         0.6485
  14   0.0000       0.039329         1.0702

E(0)                                       ...   -848.414353952
E(0)                                       ...   -848.414353952
E(CORR)                                    ...     -0.373321152
E(TOT)                                     ...   -848.787675105
E(CCSD(T))                                 ...   -848.800318311

MULLIKEN ATOMIC CHARGES AND SPIN DENSITIES
------------------------------------------
   0 Ti:   -0.000000    2.000000
Sum of atomic charges       :   -0.0000000

LOEWDIN ATOMIC CHARGES AND SPIN DENSITIES
-----------------------------------------
   0 Ti:   -0.000000    2.000000

FINAL SINGLE POINT ENERGY      -848.800318310537

DIPOLE MOMENT
-------------
                                X             Y             Z
Electronic contribution:     -0.00000      -0.00000       0.00000
Nuclear contribution   :      0.00000       0.00000       0.00000
                        -----------------------------------------
Total Dipole Moment    :     -0.00000      -0.00000       0.00000
                        -----------------------------------------
Magnitude (a.u.)       :      0.00000
Magnitude (Debye)      :      0.00000

Rotational constants in cm-1:     0.000000     0.000000     0.000000
Rotational constants in MHz :     0.000000     0.000000     0.000000

                             ****ORCA TERMINATED NORMALLY****
TOTAL RUN TIME: 0 days 0 hours 27 minutes 54 seconds 326 msec
