                         Program Version 4.2.0 -  RELEASE  -
|  1> #
|  2> # 27_Co CCSD(T)/aug-cc-pvq(+d)z
|  3> #
|  4> ! CCSD(T) aug-cc-pvq(+d)z tightscf
|  5>
|  6> *xyz 0 4
|  7>  Co 0.0 0.0 0.0
|  8> *
|  9>
| 10> %maxcore 5000
| 11>
| 12> %pal
| 13> nprocs 24
| 14> end
| 15>
| 16>
| 17>                          ****END OF INPUT****

CARTESIAN COORDINATES (ANGSTROEM)
---------------------------------
  Co     0.000000    0.000000    0.000000

 Total Charge           Charge          ....    0
 Multiplicity           Mult            ....    4
 Number of Electrons    NEL             ....   27
 Basis Dimension        Dim             ....  140

ORBITAL ENERGIES
----------------
                 SPIN UP ORBITALS
  NO   OCC          E(Eh)            E(eV)
   0   1.0000    -282.856062     -7696.9047
   1   1.0000     -34.666033      -943.3107
   2   1.0000     -29.920515      -814.1786
   3   1.0000     -29.920515      -814.1786
   4   1.0000     -29.920515      -814.1786
   5   1.0000      -4.393363      -119.5495
   6   1.0000      -2.907711       -79.1228
   7   1.0000      -2.907711       -79.1228
   8   1.0000      -2.907711       -79.1228
   9   1.0000      -0.499314       -13.5870
  10   1.0000      -0.499314       -13.5870
  11   1.0000      -0.446323       -12.1451
  12   1.0000      -0.446323       -12.1451
  13   1.0000      -0.446323       -12.1451
  14   1.0000      -0.232347        -6.3225
  15   0.0000       0.021262         0.5786
  16   0.0000       0.021262         0.5786
  17   0.0000       0.021262         0.5786
  18   0.0000       0.031688         0.8623
  19   0.0000       0.074191         2.0188

                 SPIN DOWN ORBITALS
  NO   OCC          E(Eh)            E(eV)
   0   1.0000    -282.853602     -7696.8378
   1   1.0000     -34.601471      -941.5539
   2   1.0000     -29.859521      -812.5189
   3   1.0000     -29.859521      -812.5189
   4   1.0000     -29.859521      -812.5189
   5   1.0000      -4.210382      -114.5703
   6   1.0000      -2.692955       -73.2790
   7   1.0000      -2.692955       -73.2790
   8   1.0000      -2.692955       -73.2790
   9   1.0000      -0.379649       -10.3308
  10   1.0000      -0.379649       -10.3308
  11   1.0000      -0.379649       -10.3308
  12   0.0000       0.006910         0.1880
  13   0.0000       0.029254         0.7960
  14   0.0000       0.029254         0.7960
  15   0.0000       0.029254         0.7960
  16   0.0000       0.056101         1.5266

E(0)                                       ...  -1381.367156478
E(0)                                       ...  -1381.367156478
E(CORR)                                    ...     -0.717668171
E(TOT)                                     ...  -1382.084824649
E(CCSD(T))                                 ...  -1382.110182977

MULLIKEN ATOMIC CHARGES AND SPIN DENSITIES
------------------------------------------
   0 Co:    0.000000    3.000000
Sum of atomic charges       :    0.0000000

LOEWDIN ATOMIC CHARGES AND SPIN DENSITIES
-----------------------------------------
   0 Co:   -0.000000    3.000000

FINAL SINGLE POINT ENERGY     -1382.110182977078

DIPOLE MOMENT
-------------
                                X             Y             Z
Electronic contribution:      0.00000      -0.00000      -0.00000
Nuclear contribution   :      0.00000       0.00000       0.00000
                        -----------------------------------------
Total Dipole Moment    :      0.00000      -0.00000      -0.00000
                        -----------------------------------------
Magnitude (a.u.)       :      0.00000
Magnitude (Debye)      :      0.00000

Rotational constants in cm-1:     0.000000     0.000000     0.000000
Rotational constants in MHz :     0.000000     0.000000     0.000000

                             ****ORCA TERMINATED NORMALLY****
TOTAL RUN TIME: 0 days 0 hours 22 minutes 14 seconds 445 msec
