                         Program Version 4.2.0 -  RELEASE  -
|  1> #
|  2> # 29_Cu CCSD(T)/aug-cc-pvq(+d)z
|  3> #
|  4> ! CCSD(T) aug-cc-pvq(+d)z tightscf
|  5>
|  6> *xyz 0 2
|  7>  Cu 0.0 0.0 0.0
|  8> *
|  9>
| 10> %maxcore 5000
| 11>
| 12> %pal
| 13> nprocs 24
| 14> end
| 15>
| 16>
| 17>                          ****END OF INPUT****

CARTESIAN COORDINATES (ANGSTROEM)
---------------------------------
  Cu     0.000000    0.000000    0.000000

 Total Charge           Charge          ....    0
 Multiplicity           Mult            ....    2
 Number of Electrons    NEL             ....   29
 Basis Dimension        Dim             ....  140

ORBITAL ENERGIES
----------------
                 SPIN UP ORBITALS
  NO   OCC          E(Eh)            E(eV)
   0   1.0000    -328.795096     -8946.9694
   1   1.0000     -40.819030     -1110.7423
   2   1.0000     -35.617141      -969.1917
   3   1.0000     -35.617141      -969.1917
   4   1.0000     -35.617141      -969.1917
   5   1.0000      -5.012418      -136.3948
   6   1.0000      -3.322229       -90.4024
   7   1.0000      -3.322229       -90.4024
   8   1.0000      -3.322229       -90.4024
   9   1.0000      -0.489044       -13.3076
  10   1.0000      -0.489044       -13.3076
  11   1.0000      -0.489044       -13.3076
  12   1.0000      -0.489044       -13.3076
  13   1.0000      -0.489044       -13.3076
  14   1.0000      -0.239618        -6.5203
  15   0.0000       0.022532         0.6131
  16   0.0000       0.022532         0.6131
  17   0.0000       0.022532         0.6131
  18   0.0000       0.034957         0.9512
  19   0.0000       0.077581         2.1111

                 SPIN DOWN ORBITALS
  NO   OCC          E(Eh)            E(eV)
   0   1.0000    -328.793271     -8946.9197
   1   1.0000     -40.819795     -1110.7631
   2   1.0000     -35.619726      -969.2620
   3   1.0000     -35.619726      -969.2620
   4   1.0000     -35.619726      -969.2620
   5   1.0000      -5.011656      -136.3741
   6   1.0000      -3.327407       -90.5433
   7   1.0000      -3.327407       -90.5433
   8   1.0000      -3.327407       -90.5433
   9   1.0000      -0.493282       -13.4229
  10   1.0000      -0.493282       -13.4229
  11   1.0000      -0.493282       -13.4229
  12   1.0000      -0.493282       -13.4229
  13   1.0000      -0.493282       -13.4229
  14   0.0000       0.005480         0.1491
  15   0.0000       0.029721         0.8088
  16   0.0000       0.029721         0.8088
  17   0.0000       0.029721         0.8088
  18   0.0000       0.058071         1.5802

E(0)                                       ...  -1638.964209501
E(0)                                       ...  -1638.964209501
E(CORR)                                    ...     -0.891926918
E(TOT)                                     ...  -1639.856136419
E(CCSD(T))                                 ...  -1639.887545933

MULLIKEN ATOMIC CHARGES AND SPIN DENSITIES
------------------------------------------
   0 Cu:   -0.000000    1.000000
Sum of atomic charges       :   -0.0000000

LOEWDIN ATOMIC CHARGES AND SPIN DENSITIES
-----------------------------------------
   0 Cu:   -0.000000    1.000000

FINAL SINGLE POINT ENERGY     -1639.887545932627

DIPOLE MOMENT
-------------
                                X             Y             Z
Electronic contribution:     -0.00000       0.00000       0.00000
Nuclear contribution   :      0.00000       0.00000       0.00000
                        -----------------------------------------
Total Dipole Moment    :     -0.00000       0.00000       0.00000
                        -----------------------------------------
Magnitude (a.u.)       :      0.00000
Magnitude (Debye)      :      0.00000

Rotational constants in cm-1:     0.000000     0.000000     0.000000
Rotational constants in MHz :     0.000000     0.000000     0.000000

                             ****ORCA TERMINATED NORMALLY****
TOTAL RUN TIME: 0 days 0 hours 16 minutes 20 seconds 824 msec
