                         Program Version 4.2.0 -  RELEASE  -
|  1> #
|  2> # 31_Ga CCSD(T)/aug-cc-pvq(+d)z
|  3> #
|  4> ! CCSD(T) aug-cc-pvq(+d)z tightscf
|  5>
|  6> *xyz 0 2
|  7>  Ga 0.0 0.0 0.0
|  8> *
|  9>
| 10> %maxcore 5000
| 11>
| 12> %pal
| 13> nprocs 24
| 14> end
| 15>
| 16>
| 17>                          ****END OF INPUT****

CARTESIAN COORDINATES (ANGSTROEM)
---------------------------------
  Ga     0.000000    0.000000    0.000000

 Total Charge           Charge          ....    0
 Multiplicity           Mult            ....    2
 Number of Electrons    NEL             ....   31
 Basis Dimension        Dim             ....   93

ORBITAL ENERGIES
----------------
                 SPIN UP ORBITALS
  NO   OCC          E(Eh)            E(eV)
   0   1.0000    -378.817840    -10308.1575
   1   1.0000     -48.167184     -1310.6957
   2   1.0000     -42.493252     -1156.3002
   3   1.0000     -42.493252     -1156.3002
   4   1.0000     -42.493221     -1156.2993
   5   1.0000      -6.394012      -173.9899
   6   1.0000      -4.482527      -121.9758
   7   1.0000      -4.482527      -121.9758
   8   1.0000      -4.481859      -121.9576
   9   1.0000      -1.196424       -32.5564
  10   1.0000      -1.196424       -32.5564
  11   1.0000      -1.190639       -32.3989
  12   1.0000      -1.190639       -32.3989
  13   1.0000      -1.188858       -32.3505
  14   1.0000      -0.456193       -12.4136
  15   1.0000      -0.215687        -5.8691
  16   0.0000       0.010012         0.2724
  17   0.0000       0.010012         0.2724
  18   0.0000       0.032833         0.8934
  19   0.0000       0.035381         0.9628
  20   0.0000       0.044985         1.2241

                 SPIN DOWN ORBITALS
  NO   OCC          E(Eh)            E(eV)
   0   1.0000    -378.816832    -10308.1301
   1   1.0000     -48.167576     -1310.7064
   2   1.0000     -42.493567     -1156.3088
   3   1.0000     -42.493567     -1156.3088
   4   1.0000     -42.491020     -1156.2394
   5   1.0000      -6.393120      -173.9656
   6   1.0000      -4.483789      -122.0101
   7   1.0000      -4.483789      -122.0101
   8   1.0000      -4.473360      -121.7263
   9   1.0000      -1.197424       -32.5836
  10   1.0000      -1.197424       -32.5836
  11   1.0000      -1.189297       -32.3624
  12   1.0000      -1.189297       -32.3624
  13   1.0000      -1.186771       -32.2937
  14   1.0000      -0.394364       -10.7312
  15   0.0000       0.014397         0.3918
  16   0.0000       0.014397         0.3918
  17   0.0000       0.025293         0.6883
  18   0.0000       0.038481         1.0471
  19   0.0000       0.049427         1.3450

E(0)                                       ...  -1923.264326384
E(0)                                       ...  -1923.264326384
E(CORR)                                    ...     -0.179192767
E(TOT)                                     ...  -1923.443519151
E(CCSD(T))                                 ...  -1923.452809802

MULLIKEN ATOMIC CHARGES AND SPIN DENSITIES
------------------------------------------
   0 Ga:   -0.000000    1.000000
Sum of atomic charges       :   -0.0000000

LOEWDIN ATOMIC CHARGES AND SPIN DENSITIES
-----------------------------------------
   0 Ga:   -0.000000    1.000000

FINAL SINGLE POINT ENERGY     -1923.452809801508

DIPOLE MOMENT
-------------
                                X             Y             Z
Electronic contribution:     -0.00000      -0.00000       0.00000
Nuclear contribution   :      0.00000       0.00000       0.00000
                        -----------------------------------------
Total Dipole Moment    :     -0.00000      -0.00000       0.00000
                        -----------------------------------------
Magnitude (a.u.)       :      0.00000
Magnitude (Debye)      :      0.00000

Rotational constants in cm-1:     0.000000     0.000000     0.000000
Rotational constants in MHz :     0.000000     0.000000     0.000000

                             ****ORCA TERMINATED NORMALLY****
TOTAL RUN TIME: 0 days 0 hours 1 minutes 3 seconds 742 msec
