                         Program Version 4.2.0 -  RELEASE  -
|  1> #
|  2> # 32_Ge CCSD(T)/aug-cc-pvq(+d)z
|  3> #
|  4> ! CCSD(T) aug-cc-pvq(+d)z tightscf
|  5>
|  6> *xyz 0 3
|  7>  Ge 0.0 0.0 0.0
|  8> *
|  9>
| 10> %maxcore 5000
| 11>
| 12> %pal
| 13> nprocs 24
| 14> end
| 15>
| 16>
| 17>                          ****END OF INPUT****

CARTESIAN COORDINATES (ANGSTROEM)
---------------------------------
  Ge     0.000000    0.000000    0.000000

 Total Charge           Charge          ....    0
 Multiplicity           Mult            ....    3
 Number of Electrons    NEL             ....   32
 Basis Dimension        Dim             ....   93

ORBITAL ENERGIES
----------------
                 SPIN UP ORBITALS
  NO   OCC          E(Eh)            E(eV)
   0   1.0000    -405.245516    -11027.2911
   1   1.0000     -52.149926     -1419.0716
   2   1.0000     -46.237196     -1258.1781
   3   1.0000     -46.237196     -1258.1781
   4   1.0000     -46.236573     -1258.1611
   5   1.0000      -7.193120      -195.7348
   6   1.0000      -5.165240      -140.5533
   7   1.0000      -5.165240      -140.5533
   8   1.0000      -5.165144      -140.5507
   9   1.0000      -1.640872       -44.6504
  10   1.0000      -1.638422       -44.5837
  11   1.0000      -1.638422       -44.5837
  12   1.0000      -1.631453       -44.3941
  13   1.0000      -1.631453       -44.3941
  14   1.0000      -0.629833       -17.1386
  15   1.0000      -0.291231        -7.9248
  16   1.0000      -0.291231        -7.9248
  17   0.0000      -0.012752        -0.3470
  18   0.0000       0.047603         1.2954
  19   0.0000       0.049609         1.3499
  20   0.0000       0.049609         1.3499
  21   0.0000       0.056130         1.5274

                 SPIN DOWN ORBITALS
  NO   OCC          E(Eh)            E(eV)
   0   1.0000    -405.242062    -11027.1971
   1   1.0000     -52.149552     -1419.0615
   2   1.0000     -46.236617     -1258.1623
   3   1.0000     -46.232862     -1258.0601
   4   1.0000     -46.232862     -1258.0601
   5   1.0000      -7.187461      -195.5808
   6   1.0000      -5.166172      -140.5787
   7   1.0000      -5.151793      -140.1874
   8   1.0000      -5.151793      -140.1874
   9   1.0000      -1.639658       -44.6174
  10   1.0000      -1.635876       -44.5145
  11   1.0000      -1.635876       -44.5145
  12   1.0000      -1.625023       -44.2191
  13   1.0000      -1.625023       -44.2191
  14   1.0000      -0.479241       -13.0408
  15   0.0000       0.005164         0.1405
  16   0.0000       0.029594         0.8053
  17   0.0000       0.029594         0.8053
  18   0.0000       0.054531         1.4839
  19   0.0000       0.061669         1.6781

E(0)                                       ...  -2075.363691916
E(0)                                       ...  -2075.363691916
E(CORR)                                    ...     -0.190295606
E(TOT)                                     ...  -2075.553987523
E(CCSD(T))                                 ...  -2075.561927627

MULLIKEN ATOMIC CHARGES AND SPIN DENSITIES
------------------------------------------
   0 Ge:   -0.000000    2.000000
Sum of atomic charges       :   -0.0000000

LOEWDIN ATOMIC CHARGES AND SPIN DENSITIES
-----------------------------------------
   0 Ge:   -0.000000    2.000000

FINAL SINGLE POINT ENERGY     -2075.561927627159

DIPOLE MOMENT
-------------
                                X             Y             Z
Electronic contribution:      0.00000       0.00000       0.00000
Nuclear contribution   :      0.00000       0.00000       0.00000
                        -----------------------------------------
Total Dipole Moment    :      0.00000       0.00000       0.00000
                        -----------------------------------------
Magnitude (a.u.)       :      0.00000
Magnitude (Debye)      :      0.00000

Rotational constants in cm-1:     0.000000     0.000000     0.000000
Rotational constants in MHz :     0.000000     0.000000     0.000000

                             ****ORCA TERMINATED NORMALLY****
TOTAL RUN TIME: 0 days 0 hours 0 minutes 55 seconds 415 msec
