                         Program Version 4.2.0 -  RELEASE  -
|  1> #
|  2> # 33_As CCSD(T)/aug-cc-pvq(+d)z
|  3> #
|  4> ! CCSD(T) aug-cc-pvq(+d)z tightscf
|  5>
|  6> *xyz 0 4
|  7>  As 0.0 0.0 0.0
|  8> *
|  9>
| 10> %maxcore 5000
| 11>
| 12> %pal
| 13> nprocs 24
| 14> end
| 15>
| 16>
| 17>                          ****END OF INPUT****

CARTESIAN COORDINATES (ANGSTROEM)
---------------------------------
  As     0.000000    0.000000    0.000000

 Total Charge           Charge          ....    0
 Multiplicity           Mult            ....    4
 Number of Electrons    NEL             ....   33
 Basis Dimension        Dim             ....   93

ORBITAL ENERGIES
----------------
                 SPIN UP ORBITALS
  NO   OCC          E(Eh)            E(eV)
   0   1.0000    -432.590059    -11771.3739
   1   1.0000     -56.311301     -1532.3084
   2   1.0000     -50.157598     -1364.8576
   3   1.0000     -50.157598     -1364.8576
   4   1.0000     -50.157598     -1364.8576
   5   1.0000      -8.036593      -218.6868
   6   1.0000      -5.890481      -160.2881
   7   1.0000      -5.890481      -160.2881
   8   1.0000      -5.890481      -160.2881
   9   1.0000      -2.117372       -57.6166
  10   1.0000      -2.117372       -57.6166
  11   1.0000      -2.117372       -57.6166
  12   1.0000      -2.117372       -57.6166
  13   1.0000      -2.117372       -57.6166
  14   1.0000      -0.815602       -22.1937
  15   1.0000      -0.370174       -10.0729
  16   1.0000      -0.370174       -10.0729
  17   1.0000      -0.370174       -10.0729
  18   0.0000       0.057733         1.5710
  19   0.0000       0.060773         1.6537
  20   0.0000       0.060773         1.6537
  21   0.0000       0.060773         1.6537
  22   0.0000       0.142303         3.8722

                 SPIN DOWN ORBITALS
  NO   OCC          E(Eh)            E(eV)
   0   1.0000    -432.582667    -11771.1728
   1   1.0000     -56.308919     -1532.2436
   2   1.0000     -50.150379     -1364.6612
   3   1.0000     -50.150379     -1364.6612
   4   1.0000     -50.150379     -1364.6612
   5   1.0000      -8.022736      -218.3098
   6   1.0000      -5.870899      -159.7553
   7   1.0000      -5.870899      -159.7553
   8   1.0000      -5.870899      -159.7553
   9   1.0000      -2.107956       -57.3604
  10   1.0000      -2.107956       -57.3604
  11   1.0000      -2.107956       -57.3604
  12   1.0000      -2.107956       -57.3604
  13   1.0000      -2.107956       -57.3604
  14   1.0000      -0.556143       -15.1334
  15   0.0000       0.024017         0.6535
  16   0.0000       0.024017         0.6535
  17   0.0000       0.024017         0.6535
  18   0.0000       0.068801         1.8722
  19   0.0000       0.088944         2.4203

E(0)                                       ...  -2234.239667580
E(0)                                       ...  -2234.239667580
E(CORR)                                    ...     -0.207662635
E(TOT)                                     ...  -2234.447330215
E(CCSD(T))                                 ...  -2234.455181125

MULLIKEN ATOMIC CHARGES AND SPIN DENSITIES
------------------------------------------
   0 As:   -0.000000    3.000000
Sum of atomic charges       :   -0.0000000

LOEWDIN ATOMIC CHARGES AND SPIN DENSITIES
-----------------------------------------
   0 As:   -0.000000    3.000000

FINAL SINGLE POINT ENERGY     -2234.455181125070

DIPOLE MOMENT
-------------
                                X             Y             Z
Electronic contribution:     -0.00000      -0.00000      -0.00000
Nuclear contribution   :      0.00000       0.00000       0.00000
                        -----------------------------------------
Total Dipole Moment    :     -0.00000      -0.00000      -0.00000
                        -----------------------------------------
Magnitude (a.u.)       :      0.00000
Magnitude (Debye)      :      0.00000

Rotational constants in cm-1:     0.000000     0.000000     0.000000
Rotational constants in MHz :     0.000000     0.000000     0.000000

                             ****ORCA TERMINATED NORMALLY****
TOTAL RUN TIME: 0 days 0 hours 0 minutes 49 seconds 643 msec
