                         Program Version 4.2.0 -  RELEASE  -
|  1> #
|  2> # 34_Se CCSD(T)/aug-cc-pvq(+d)z
|  3> #
|  4> ! CCSD(T) aug-cc-pvq(+d)z tightscf
|  5>
|  6> *xyz 0 3
|  7>  Se 0.0 0.0 0.0
|  8> *
|  9>
| 10> %maxcore 5000
| 11>
| 12> %pal
| 13> nprocs 24
| 14> end
| 15>
| 16>
| 17>                          ****END OF INPUT****

CARTESIAN COORDINATES (ANGSTROEM)
---------------------------------
  Se     0.000000    0.000000    0.000000

 Total Charge           Charge          ....    0
 Multiplicity           Mult            ....    3
 Number of Electrons    NEL             ....   34
 Basis Dimension        Dim             ....   93

ORBITAL ENERGIES
----------------
                 SPIN UP ORBITALS
  NO   OCC          E(Eh)            E(eV)
   0   1.0000    -460.870365    -12540.9202
   1   1.0000     -60.670062     -1650.9163
   2   1.0000     -54.274135     -1476.8743
   3   1.0000     -54.274135     -1476.8743
   4   1.0000     -54.268081     -1476.7096
   5   1.0000      -8.938280      -243.2230
   6   1.0000      -6.676764      -181.6840
   7   1.0000      -6.676764      -181.6840
   8   1.0000      -6.656850      -181.1421
   9   1.0000      -2.663065       -72.4657
  10   1.0000      -2.663065       -72.4657
  11   1.0000      -2.649024       -72.0836
  12   1.0000      -2.649024       -72.0836
  13   1.0000      -2.644435       -71.9587
  14   1.0000      -0.936575       -25.4855
  15   1.0000      -0.448152       -12.1948
  16   1.0000      -0.448152       -12.1948
  17   1.0000      -0.384417       -10.4605
  18   0.0000       0.064160         1.7459
  19   0.0000       0.064160         1.7459
  20   0.0000       0.069050         1.8790
  21   0.0000       0.069594         1.8937
  22   0.0000       0.160245         4.3605

                 SPIN DOWN ORBITALS
  NO   OCC          E(Eh)            E(eV)
   0   1.0000    -460.863659    -12540.7377
   1   1.0000     -60.667073     -1650.8350
   2   1.0000     -54.266335     -1476.6621
   3   1.0000     -54.264404     -1476.6095
   4   1.0000     -54.264404     -1476.6095
   5   1.0000      -8.925280      -242.8692
   6   1.0000      -6.654148      -181.0686
   7   1.0000      -6.651426      -180.9945
   8   1.0000      -6.651426      -180.9945
   9   1.0000      -2.649999       -72.1101
  10   1.0000      -2.649999       -72.1101
  11   1.0000      -2.642409       -71.9036
  12   1.0000      -2.642409       -71.9036
  13   1.0000      -2.640012       -71.8384
  14   1.0000      -0.741990       -20.1906
  15   1.0000      -0.349092        -9.4993
  16   0.0000      -0.006278        -0.1708
  17   0.0000      -0.006278        -0.1708
  18   0.0000       0.070536         1.9194
  19   0.0000       0.076428         2.0797
  20   0.0000       0.080129         2.1804

E(0)                                       ...  -2399.875161475
E(0)                                       ...  -2399.875161475
E(CORR)                                    ...     -0.240852692
E(TOT)                                     ...  -2400.116014167
E(CCSD(T))                                 ...  -2400.124124502

MULLIKEN ATOMIC CHARGES AND SPIN DENSITIES
------------------------------------------
   0 Se:    0.000000    2.000000
Sum of atomic charges       :    0.0000000

LOEWDIN ATOMIC CHARGES AND SPIN DENSITIES
-----------------------------------------
   0 Se:    0.000000    2.000000

FINAL SINGLE POINT ENERGY     -2400.124124501687

DIPOLE MOMENT
-------------
                                X             Y             Z
Electronic contribution:     -0.00000      -0.00000       0.00000
Nuclear contribution   :      0.00000       0.00000       0.00000
                        -----------------------------------------
Total Dipole Moment    :     -0.00000      -0.00000       0.00000
                        -----------------------------------------
Magnitude (a.u.)       :      0.00000
Magnitude (Debye)      :      0.00000

Rotational constants in cm-1:     0.000000     0.000000     0.000000
Rotational constants in MHz :     0.000000     0.000000     0.000000

                             ****ORCA TERMINATED NORMALLY****
TOTAL RUN TIME: 0 days 0 hours 1 minutes 1 seconds 482 msec
