                         Program Version 4.2.0 -  RELEASE  -
|  1> #
|  2> # 01_H CCSD(T)/aug-cc-pvt(+d)z
|  3> #
|  4> ! MP2 aug-cc-pvt(+d)z tightscf
|  5>
|  6> *xyz 0 2
|  7>  H 0.0 0.0 0.0
|  8> *
|  9>
| 10>
| 11>                          ****END OF INPUT****

CARTESIAN COORDINATES (ANGSTROEM)
---------------------------------
  H      0.000000    0.000000    0.000000

 Total Charge           Charge          ....    0
 Multiplicity           Mult            ....    2
 Number of Electrons    NEL             ....    1
 Basis Dimension        Dim             ....   23

ORBITAL ENERGIES
----------------
                 SPIN UP ORBITALS
  NO   OCC          E(Eh)            E(eV)
   0   1.0000      -0.499821       -13.6008
   1   0.0000       0.057750         1.5715
   2   0.0000       0.205840         5.6012
   3   0.0000       0.205840         5.6012
   4   0.0000       0.205840         5.6012
   5   0.0000       0.450835        12.2679

                 SPIN DOWN ORBITALS
  NO   OCC          E(Eh)            E(eV)

MULLIKEN ATOMIC CHARGES AND SPIN POPULATIONS
--------------------------------------------
   0 H :   -0.000000    1.000000
Sum of atomic charges         :   -0.0000000

LOEWDIN ATOMIC CHARGES AND SPIN POPULATIONS
-------------------------------------------
   0 H :   -0.000000    1.000000

MP2 TOTAL ENERGY:       -0.499821176 Eh
FINAL SINGLE POINT ENERGY        -0.499821175990

DIPOLE MOMENT
-------------
                                X             Y             Z
Electronic contribution:      0.00000      -0.00000       0.00000
Nuclear contribution   :      0.00000       0.00000       0.00000
                        -----------------------------------------
Total Dipole Moment    :      0.00000      -0.00000       0.00000
                        -----------------------------------------
Magnitude (a.u.)       :      0.00000
Magnitude (Debye)      :      0.00000

Rotational constants in cm-1:     0.000000     0.000000     0.000000
Rotational constants in MHz :     0.000000     0.000000     0.000000

                             ****ORCA TERMINATED NORMALLY****
TOTAL RUN TIME: 0 days 0 hours 0 minutes 2 seconds 198 msec
