                         Program Version 4.2.0 -  RELEASE  -
|  1> #
|  2> # 03_Li CCSD(T)/aug-cc-pvt(+d)z
|  3> #
|  4> ! HF aug-cc-pvt(+d)z tightscf
|  5>
|  6> *xyz 0 2
|  7>  Li 0.0 0.0 0.0
|  8> *
|  9>
| 10> %method
| 11> NewNCore Li 2 end
| 12> end
| 13>
| 14>
| 15>                          ****END OF INPUT****

CARTESIAN COORDINATES (ANGSTROEM)
---------------------------------
  Li     0.000000    0.000000    0.000000

 Total Charge           Charge          ....    0
 Multiplicity           Mult            ....    2
 Number of Electrons    NEL             ....    3
 Basis Dimension        Dim             ....   46

ORBITAL ENERGIES
----------------
                 SPIN UP ORBITALS
  NO   OCC          E(Eh)            E(eV)
   0   1.0000      -2.486675       -67.6659
   1   1.0000      -0.196355        -5.3431
   2   0.0000       0.012690         0.3453
   3   0.0000       0.012690         0.3453
   4   0.0000       0.012690         0.3453
   5   0.0000       0.020061         0.5459
   6   0.0000       0.041256         1.1226

                 SPIN DOWN ORBITALS
  NO   OCC          E(Eh)            E(eV)
   0   1.0000      -2.468829       -67.1802
   1   0.0000       0.005611         0.1527
   2   0.0000       0.018551         0.5048
   3   0.0000       0.018551         0.5048
   4   0.0000       0.018551         0.5048
   5   0.0000       0.043124         1.1735

MULLIKEN ATOMIC CHARGES AND SPIN POPULATIONS
--------------------------------------------
   0 Li:   -0.000000    1.000000
Sum of atomic charges         :   -0.0000000

LOEWDIN ATOMIC CHARGES AND SPIN POPULATIONS
-------------------------------------------
   0 Li:   -0.000000    1.000000

FINAL SINGLE POINT ENERGY        -7.432704967803

DIPOLE MOMENT
-------------
                                X             Y             Z
Electronic contribution:      0.00000      -0.00000       0.00000
Nuclear contribution   :      0.00000       0.00000       0.00000
                        -----------------------------------------
Total Dipole Moment    :      0.00000      -0.00000       0.00000
                        -----------------------------------------
Magnitude (a.u.)       :      0.00000
Magnitude (Debye)      :      0.00000

Rotational constants in cm-1:     0.000000     0.000000     0.000000
Rotational constants in MHz :     0.000000     0.000000     0.000000

                             ****ORCA TERMINATED NORMALLY****
TOTAL RUN TIME: 0 days 0 hours 0 minutes 1 seconds 633 msec
