                         Program Version 4.2.0 -  RELEASE  -
|  1> #
|  2> # 05_B CCSD(T)/aug-cc-pvt(+d)z
|  3> #
|  4> ! CCSD(T) aug-cc-pvt(+d)z tightscf
|  5>
|  6> *xyz 0 2
|  7>  B 0.0 0.0 0.0
|  8> *
|  9>
| 10> %maxcore 5000
| 11>
| 12> %pal
| 13> nprocs 3
| 14> end
| 15>
| 16>
| 17>                          ****END OF INPUT****

CARTESIAN COORDINATES (ANGSTROEM)
---------------------------------
  B      0.000000    0.000000    0.000000

 Total Charge           Charge          ....    0
 Multiplicity           Mult            ....    2
 Number of Electrons    NEL             ....    5
 Basis Dimension        Dim             ....   46

ORBITAL ENERGIES
----------------
                 SPIN UP ORBITALS
  NO   OCC          E(Eh)            E(eV)
   0   1.0000      -7.701722      -209.5745
   1   1.0000      -0.545400       -14.8411
   2   1.0000      -0.318486        -8.6664
   3   0.0000       0.024844         0.6760
   4   0.0000       0.024844         0.6760
   5   0.0000       0.059109         1.6084
   6   0.0000       0.065688         1.7874
   7   0.0000       0.088490         2.4079

                 SPIN DOWN ORBITALS
  NO   OCC          E(Eh)            E(eV)
   0   1.0000      -7.686734      -209.1667
   1   1.0000      -0.446540       -12.1510
   2   0.0000       0.029223         0.7952
   3   0.0000       0.029223         0.7952
   4   0.0000       0.043896         1.1945
   5   0.0000       0.070513         1.9188
   6   0.0000       0.095997         2.6122

E(0)                                       ...    -24.532171531
E(0)                                       ...    -24.532171531
E(CORR)                                    ...     -0.064921569
E(TOT)                                     ...    -24.597093100
E(CCSD(T))                                 ...    -24.598450013

MULLIKEN ATOMIC CHARGES AND SPIN DENSITIES
------------------------------------------
   0 B :   -0.000000    1.000000
Sum of atomic charges       :   -0.0000000

LOEWDIN ATOMIC CHARGES AND SPIN DENSITIES
-----------------------------------------
   0 B :    0.000000    1.000000

FINAL SINGLE POINT ENERGY       -24.598450012516

DIPOLE MOMENT
-------------
                                X             Y             Z
Electronic contribution:     -0.00000      -0.00000       0.00000
Nuclear contribution   :      0.00000       0.00000       0.00000
                        -----------------------------------------
Total Dipole Moment    :     -0.00000      -0.00000       0.00000
                        -----------------------------------------
Magnitude (a.u.)       :      0.00000
Magnitude (Debye)      :      0.00000

Rotational constants in cm-1:     0.000000     0.000000     0.000000
Rotational constants in MHz :     0.000000     0.000000     0.000000

                             ****ORCA TERMINATED NORMALLY****
TOTAL RUN TIME: 0 days 0 hours 0 minutes 6 seconds 747 msec
