                         Program Version 4.2.0 -  RELEASE  -
|  1> #
|  2> # 06_C CCSD(T)/aug-cc-pvt(+d)z
|  3> #
|  4> ! CCSD(T) aug-cc-pvt(+d)z tightscf
|  5>
|  6> *xyz 0 3
|  7>  C 0.0 0.0 0.0
|  8> *
|  9>
| 10> %maxcore 5000
| 11>
| 12> %pal
| 13> nprocs 6
| 14> end
| 15>
| 16>
| 17>                          ****END OF INPUT****

CARTESIAN COORDINATES (ANGSTROEM)
---------------------------------
  C      0.000000    0.000000    0.000000

 Total Charge           Charge          ....    0
 Multiplicity           Mult            ....    3
 Number of Electrons    NEL             ....    6
 Basis Dimension        Dim             ....   46

ORBITAL ENERGIES
----------------
                 SPIN UP ORBITALS
  NO   OCC          E(Eh)            E(eV)
   0   1.0000     -11.346539      -308.7550
   1   1.0000      -0.829583       -22.5741
   2   1.0000      -0.438817       -11.9408
   3   1.0000      -0.438817       -11.9408
   4   0.0000       0.017512         0.4765
   5   0.0000       0.094463         2.5705
   6   0.0000       0.096378         2.6226
   7   0.0000       0.096378         2.6226
   8   0.0000       0.123971         3.3734

                 SPIN DOWN ORBITALS
  NO   OCC          E(Eh)            E(eV)
   0   1.0000     -11.301537      -307.5305
   1   1.0000      -0.584136       -15.8952
   2   0.0000       0.037674         1.0252
   3   0.0000       0.062958         1.7132
   4   0.0000       0.062958         1.7132
   5   0.0000       0.106339         2.8936
   6   0.0000       0.141405         3.8478

E(0)                                       ...    -37.691811311
E(0)                                       ...    -37.691811311
E(CORR)                                    ...     -0.087841070
E(TOT)                                     ...    -37.779652382
E(CCSD(T))                                 ...    -37.781824824

MULLIKEN ATOMIC CHARGES AND SPIN DENSITIES
------------------------------------------
   0 C :   -0.000000    2.000000
Sum of atomic charges       :   -0.0000000

LOEWDIN ATOMIC CHARGES AND SPIN DENSITIES
-----------------------------------------
   0 C :    0.000000    2.000000

FINAL SINGLE POINT ENERGY       -37.781824824041

DIPOLE MOMENT
-------------
                                X             Y             Z
Electronic contribution:     -0.00000      -0.00000      -0.00000
Nuclear contribution   :      0.00000       0.00000       0.00000
                        -----------------------------------------
Total Dipole Moment    :     -0.00000      -0.00000      -0.00000
                        -----------------------------------------
Magnitude (a.u.)       :      0.00000
Magnitude (Debye)      :      0.00000

Rotational constants in cm-1:     0.000000     0.000000     0.000000
Rotational constants in MHz :     0.000000     0.000000     0.000000

                             ****ORCA TERMINATED NORMALLY****
TOTAL RUN TIME: 0 days 0 hours 0 minutes 6 seconds 473 msec
