                         Program Version 4.2.0 -  RELEASE  -
|  1> #
|  2> # 09_F CCSD(T)/aug-cc-pvt(+d)z
|  3> #
|  4> ! CCSD(T) aug-cc-pvt(+d)z tightscf
|  5>
|  6> *xyz 0 2
|  7>  F 0.0 0.0 0.0
|  8> *
|  9>
| 10> %maxcore 5000
| 11>
| 12> %pal
| 13> nprocs 21
| 14> end
| 15>
| 16>
| 17>                          ****END OF INPUT****

CARTESIAN COORDINATES (ANGSTROEM)
---------------------------------
  F      0.000000    0.000000    0.000000

 Total Charge           Charge          ....    0
 Multiplicity           Mult            ....    2
 Number of Electrons    NEL             ....    9
 Basis Dimension        Dim             ....   46

ORBITAL ENERGIES
----------------
                 SPIN UP ORBITALS
  NO   OCC          E(Eh)            E(eV)
   0   1.0000     -26.411561      -718.6951
   1   1.0000      -1.674493       -45.5653
   2   1.0000      -0.845500       -23.0072
   3   1.0000      -0.732072       -19.9207
   4   1.0000      -0.732072       -19.9207
   5   0.0000       0.186086         5.0636
   6   0.0000       0.194557         5.2942
   7   0.0000       0.196065         5.3352
   8   0.0000       0.196065         5.3352
   9   0.0000       0.848024        23.0759

                 SPIN DOWN ORBITALS
  NO   OCC          E(Eh)            E(eV)
   0   1.0000     -26.363540      -717.3884
   1   1.0000      -1.479256       -40.2526
   2   1.0000      -0.680290       -18.5116
   3   1.0000      -0.680290       -18.5116
   4   0.0000       0.035547         0.9673
   5   0.0000       0.198143         5.3918
   6   0.0000       0.198143         5.3918
   7   0.0000       0.201843         5.4924
   8   0.0000       0.244415         6.6509

E(0)                                       ...    -99.406879353
E(0)                                       ...    -99.406879353
E(CORR)                                    ...     -0.216572986
E(TOT)                                     ...    -99.623452338
E(CCSD(T))                                 ...    -99.627826964

MULLIKEN ATOMIC CHARGES AND SPIN DENSITIES
------------------------------------------
   0 F :   -0.000000    1.000000
Sum of atomic charges       :   -0.0000000

LOEWDIN ATOMIC CHARGES AND SPIN DENSITIES
-----------------------------------------
   0 F :    0.000000    1.000000

FINAL SINGLE POINT ENERGY       -99.627826963574

DIPOLE MOMENT
-------------
                                X             Y             Z
Electronic contribution:      0.00000      -0.00000      -0.00000
Nuclear contribution   :      0.00000       0.00000       0.00000
                        -----------------------------------------
Total Dipole Moment    :      0.00000      -0.00000      -0.00000
                        -----------------------------------------
Magnitude (a.u.)       :      0.00000
Magnitude (Debye)      :      0.00000

Rotational constants in cm-1:     0.000000     0.000000     0.000000
Rotational constants in MHz :     0.000000     0.000000     0.000000

                             ****ORCA TERMINATED NORMALLY****
TOTAL RUN TIME: 0 days 0 hours 0 minutes 11 seconds 163 msec
