                         Program Version 4.2.0 -  RELEASE  -
|  1> #
|  2> # 10_Ne CCSD(T)/aug-cc-pvt(+d)z
|  3> #
|  4> ! CCSD(T) aug-cc-pvt(+d)z tightscf
|  5>
|  6> *xyz 0 1
|  7>  Ne 0.0 0.0 0.0
|  8> *
|  9>
| 10> %maxcore 5000
| 11>
| 12> %pal
| 13> nprocs 10
| 14> end
| 15>
| 16>
| 17>                          ****END OF INPUT****

CARTESIAN COORDINATES (ANGSTROEM)
---------------------------------
  Ne     0.000000    0.000000    0.000000

 Total Charge           Charge          ....    0
 Multiplicity           Mult            ....    1
 Number of Electrons    NEL             ....   10
 Basis Dimension        Dim             ....   46

ORBITAL ENERGIES
----------------

  NO   OCC          E(Eh)            E(eV)
   0   2.0000     -32.779021      -891.9625
   1   2.0000      -1.933412       -52.6108
   2   2.0000      -0.851212       -23.1626
   3   2.0000      -0.851212       -23.1626
   4   2.0000      -0.851212       -23.1626
   5   0.0000       0.240809         6.5528
   6   0.0000       0.240809         6.5528
   7   0.0000       0.240809         6.5528
   8   0.0000       0.242497         6.5987
   9   0.0000       1.131728        30.7959

E(0)                                       ...   -128.533272825
E(0)                                       ...   -128.533272825
E(CORR)                                    ...     -0.274094761
E(TOT)                                     ...   -128.807367586
E(CCSD(T))                                 ...   -128.812647534

MULLIKEN ATOMIC CHARGES
-----------------------
   0 Ne:   -0.000000
Sum of atomic charges:   -0.0000000

LOEWDIN ATOMIC CHARGES
----------------------
   0 Ne:   -0.000000

FINAL SINGLE POINT ENERGY      -128.812647534458

DIPOLE MOMENT
-------------
                                X             Y             Z
Electronic contribution:      0.00000       0.00000      -0.00000
Nuclear contribution   :      0.00000       0.00000       0.00000
                        -----------------------------------------
Total Dipole Moment    :      0.00000       0.00000      -0.00000
                        -----------------------------------------
Magnitude (a.u.)       :      0.00000
Magnitude (Debye)      :      0.00000

Rotational constants in cm-1:     0.000000     0.000000     0.000000
Rotational constants in MHz :     0.000000     0.000000     0.000000

                             ****ORCA TERMINATED NORMALLY****
TOTAL RUN TIME: 0 days 0 hours 0 minutes 4 seconds 164 msec
