                         Program Version 4.2.0 -  RELEASE  -
|  1> #
|  2> # 13_Al CCSD(T)/aug-cc-pvt(+d)z
|  3> #
|  4> ! CCSD(T) aug-cc-pvt(+d)z tightscf
|  5>
|  6> *xyz 0 2
|  7>  Al 0.0 0.0 0.0
|  8> *
|  9>
| 10> %maxcore 5000
| 11>
| 12> %pal
| 13> nprocs 3
| 14> end
| 15>
| 16>
| 17>                          ****END OF INPUT****

CARTESIAN COORDINATES (ANGSTROEM)
---------------------------------
  Al     0.000000    0.000000    0.000000

 Total Charge           Charge          ....    0
 Multiplicity           Mult            ....    2
 Number of Electrons    NEL             ....   13
 Basis Dimension        Dim             ....   55

ORBITAL ENERGIES
----------------
                 SPIN UP ORBITALS
  NO   OCC          E(Eh)            E(eV)
   0   1.0000     -58.501987     -1591.9200
   1   1.0000      -4.911724      -133.6548
   2   1.0000      -3.225928       -87.7820
   3   1.0000      -3.218806       -87.5882
   4   1.0000      -3.218806       -87.5882
   5   1.0000      -0.425956       -11.5909
   6   1.0000      -0.217992        -5.9319
   7   0.0000       0.009957         0.2709
   8   0.0000       0.009957         0.2709
   9   0.0000       0.046969         1.2781
  10   0.0000       0.047214         1.2848
  11   0.0000       0.063325         1.7232

                 SPIN DOWN ORBITALS
  NO   OCC          E(Eh)            E(eV)
   0   1.0000     -58.499099     -1591.8414
   1   1.0000      -4.908328      -133.5624
   2   1.0000      -3.217304       -87.5473
   3   1.0000      -3.217304       -87.5473
   4   1.0000      -3.208028       -87.2949
   5   1.0000      -0.364220        -9.9109
   6   0.0000       0.014296         0.3890
   7   0.0000       0.014296         0.3890
   8   0.0000       0.030954         0.8423
   9   0.0000       0.051464         1.4004
  10   0.0000       0.066775         1.8171

E(0)                                       ...   -241.879215741
E(0)                                       ...   -241.879215741
E(CORR)                                    ...     -0.051214383
E(TOT)                                     ...   -241.930430124
E(CCSD(T))                                 ...   -241.931615777

MULLIKEN ATOMIC CHARGES AND SPIN DENSITIES
------------------------------------------
   0 Al:   -0.000000    1.000000
Sum of atomic charges       :   -0.0000000

LOEWDIN ATOMIC CHARGES AND SPIN DENSITIES
-----------------------------------------
   0 Al:   -0.000000    1.000000

FINAL SINGLE POINT ENERGY      -241.931615776609

DIPOLE MOMENT
-------------
                                X             Y             Z
Electronic contribution:     -0.00000       0.00000      -0.00000
Nuclear contribution   :      0.00000       0.00000       0.00000
                        -----------------------------------------
Total Dipole Moment    :     -0.00000       0.00000      -0.00000
                        -----------------------------------------
Magnitude (a.u.)       :      0.00000
Magnitude (Debye)      :      0.00000

Rotational constants in cm-1:     0.000000     0.000000     0.000000
Rotational constants in MHz :     0.000000     0.000000     0.000000

                             ****ORCA TERMINATED NORMALLY****
TOTAL RUN TIME: 0 days 0 hours 0 minutes 12 seconds 851 msec
