                         Program Version 4.2.0 -  RELEASE  -
|  1> #
|  2> # 14_Si CCSD(T)/aug-cc-pvt(+d)z
|  3> #
|  4> ! CCSD(T) aug-cc-pvt(+d)z tightscf
|  5>
|  6> *xyz 0 3
|  7>  Si 0.0 0.0 0.0
|  8> *
|  9>
| 10> %maxcore 5000
| 11>
| 12> %pal
| 13> nprocs 6
| 14> end
| 15>
| 16>
| 17>                          ****END OF INPUT****

CARTESIAN COORDINATES (ANGSTROEM)
---------------------------------
  Si     0.000000    0.000000    0.000000

 Total Charge           Charge          ....    0
 Multiplicity           Mult            ....    3
 Number of Electrons    NEL             ....   14
 Basis Dimension        Dim             ....   55

ORBITAL ENERGIES
----------------
                 SPIN UP ORBITALS
  NO   OCC          E(Eh)            E(eV)
   0   1.0000     -68.817443     -1872.6178
   1   1.0000      -6.161832      -167.6720
   2   1.0000      -4.269630      -116.1826
   3   1.0000      -4.269630      -116.1826
   4   1.0000      -4.259216      -115.8992
   5   1.0000      -0.620345       -16.8804
   6   1.0000      -0.301325        -8.1995
   7   1.0000      -0.301325        -8.1995
   8   0.0000      -0.010337        -0.2813
   9   0.0000       0.066382         1.8063
  10   0.0000       0.070562         1.9201
  11   0.0000       0.070562         1.9201
  12   0.0000       0.082658         2.2492

                 SPIN DOWN ORBITALS
  NO   OCC          E(Eh)            E(eV)
   0   1.0000     -68.807863     -1872.3572
   1   1.0000      -6.150887      -167.3741
   2   1.0000      -4.254328      -115.7661
   3   1.0000      -4.241136      -115.4072
   4   1.0000      -4.241136      -115.4072
   5   1.0000      -0.463753       -12.6194
   6   0.0000       0.005417         0.1474
   7   0.0000       0.034898         0.9496
   8   0.0000       0.034898         0.9496
   9   0.0000       0.076585         2.0840
  10   0.0000       0.088931         2.4199

E(0)                                       ...   -288.856691421
E(0)                                       ...   -288.856691421
E(CORR)                                    ...     -0.074871741
E(TOT)                                     ...   -288.931563162
E(CCSD(T))                                 ...   -288.934147979

MULLIKEN ATOMIC CHARGES AND SPIN DENSITIES
------------------------------------------
   0 Si:   -0.000000    2.000000
Sum of atomic charges       :   -0.0000000

LOEWDIN ATOMIC CHARGES AND SPIN DENSITIES
-----------------------------------------
   0 Si:   -0.000000    2.000000

FINAL SINGLE POINT ENERGY      -288.934147979365

DIPOLE MOMENT
-------------
                                X             Y             Z
Electronic contribution:     -0.00000      -0.00000      -0.00000
Nuclear contribution   :      0.00000       0.00000       0.00000
                        -----------------------------------------
Total Dipole Moment    :     -0.00000      -0.00000      -0.00000
                        -----------------------------------------
Magnitude (a.u.)       :      0.00000
Magnitude (Debye)      :      0.00000

Rotational constants in cm-1:     0.000000     0.000000     0.000000
Rotational constants in MHz :     0.000000     0.000000     0.000000

                             ****ORCA TERMINATED NORMALLY****
TOTAL RUN TIME: 0 days 0 hours 0 minutes 15 seconds 546 msec
