                         Program Version 4.2.0 -  RELEASE  -
|  1> #
|  2> # 15_P CCSD(T)/aug-cc-pvt(+d)z
|  3> #
|  4> ! CCSD(T) aug-cc-pvt(+d)z tightscf
|  5>
|  6> *xyz 0 4
|  7>  P 0.0 0.0 0.0
|  8> *
|  9>
| 10> %maxcore 5000
| 11>
| 12> %pal
| 13> nprocs 10
| 14> end
| 15>
| 16>
| 17>                          ****END OF INPUT****

CARTESIAN COORDINATES (ANGSTROEM)
---------------------------------
  P      0.000000    0.000000    0.000000

 Total Charge           Charge          ....    0
 Multiplicity           Mult            ....    4
 Number of Electrons    NEL             ....   15
 Basis Dimension        Dim             ....   55

ORBITAL ENERGIES
----------------
                 SPIN UP ORBITALS
  NO   OCC          E(Eh)            E(eV)
   0   1.0000     -79.980605     -2176.3829
   1   1.0000      -7.522535      -204.6986
   2   1.0000      -5.421253      -147.5198
   3   1.0000      -5.421253      -147.5198
   4   1.0000      -5.421253      -147.5198
   5   1.0000      -0.836478       -22.7617
   6   1.0000      -0.392176       -10.6716
   7   1.0000      -0.392176       -10.6716
   8   1.0000      -0.392176       -10.6716
   9   0.0000       0.081250         2.2109
  10   0.0000       0.085233         2.3193
  11   0.0000       0.085233         2.3193
  12   0.0000       0.085233         2.3193
  13   0.0000       0.194163         5.2834

                 SPIN DOWN ORBITALS
  NO   OCC          E(Eh)            E(eV)
   0   1.0000     -79.960713     -2175.8416
   1   1.0000      -7.500583      -204.1012
   2   1.0000      -5.381175      -146.4292
   3   1.0000      -5.381175      -146.4292
   4   1.0000      -5.381175      -146.4292
   5   1.0000      -0.556878       -15.1534
   6   0.0000       0.029937         0.8146
   7   0.0000       0.029937         0.8146
   8   0.0000       0.029937         0.8146
   9   0.0000       0.097653         2.6573
  10   0.0000       0.125826         3.4239

E(0)                                       ...   -340.716491476
E(0)                                       ...   -340.716491476
E(CORR)                                    ...     -0.102209848
E(TOT)                                     ...   -340.818701324
E(CCSD(T))                                 ...   -340.822779518

MULLIKEN ATOMIC CHARGES AND SPIN DENSITIES
------------------------------------------
   0 P :   -0.000000    3.000000
Sum of atomic charges       :   -0.0000000

LOEWDIN ATOMIC CHARGES AND SPIN DENSITIES
-----------------------------------------
   0 P :   -0.000000    3.000000

FINAL SINGLE POINT ENERGY      -340.822779517959

DIPOLE MOMENT
-------------
                                X             Y             Z
Electronic contribution:     -0.00000       0.00000      -0.00000
Nuclear contribution   :      0.00000       0.00000       0.00000
                        -----------------------------------------
Total Dipole Moment    :     -0.00000       0.00000      -0.00000
                        -----------------------------------------
Magnitude (a.u.)       :      0.00000
Magnitude (Debye)      :      0.00000

Rotational constants in cm-1:     0.000000     0.000000     0.000000
Rotational constants in MHz :     0.000000     0.000000     0.000000

                             ****ORCA TERMINATED NORMALLY****
TOTAL RUN TIME: 0 days 0 hours 0 minutes 10 seconds 155 msec
