                         Program Version 4.2.0 -  RELEASE  -
|  1> #
|  2> # 16_S CCSD(T)/aug-cc-pvt(+d)z
|  3> #
|  4> ! CCSD(T) aug-cc-pvt(+d)z tightscf
|  5>
|  6> *xyz 0 3
|  7>  S 0.0 0.0 0.0
|  8> *
|  9>
| 10> %maxcore 5000
| 11>
| 12> %pal
| 13> nprocs 15
| 14> end
| 15>
| 16>
| 17>                          ****END OF INPUT****

CARTESIAN COORDINATES (ANGSTROEM)
---------------------------------
  S      0.000000    0.000000    0.000000

 Total Charge           Charge          ....    0
 Multiplicity           Mult            ....    3
 Number of Electrons    NEL             ....   16
 Basis Dimension        Dim             ....   55

ORBITAL ENERGIES
----------------
                 SPIN UP ORBITALS
  NO   OCC          E(Eh)            E(eV)
   0   1.0000     -92.013736     -2503.8211
   1   1.0000      -9.013571      -245.2717
   2   1.0000      -6.705902      -182.4769
   3   1.0000      -6.705902      -182.4769
   4   1.0000      -6.685386      -181.9186
   5   1.0000      -0.990122       -26.9426
   6   1.0000      -0.487087       -13.2543
   7   1.0000      -0.487087       -13.2543
   8   1.0000      -0.415722       -11.3124
   9   0.0000       0.091732         2.4961
  10   0.0000       0.091732         2.4961
  11   0.0000       0.099793         2.7155
  12   0.0000       0.100334         2.7302
  13   0.0000       0.239008         6.5037

                 SPIN DOWN ORBITALS
  NO   OCC          E(Eh)            E(eV)
   0   1.0000     -91.996051     -2503.3398
   1   1.0000      -8.994840      -244.7620
   2   1.0000      -6.675607      -181.6525
   3   1.0000      -6.660348      -181.2373
   4   1.0000      -6.660348      -181.2373
   5   1.0000      -0.774435       -21.0734
   6   1.0000      -0.379655       -10.3309
   7   0.0000       0.001113         0.0303
   8   0.0000       0.001113         0.0303
   9   0.0000       0.101464         2.7610
  10   0.0000       0.111471         3.0333
  11   0.0000       0.119017         3.2386

E(0)                                       ...   -397.509982057
E(0)                                       ...   -397.509982057
E(CORR)                                    ...     -0.142152066
E(TOT)                                     ...   -397.652134122
E(CCSD(T))                                 ...   -397.657277253

MULLIKEN ATOMIC CHARGES AND SPIN DENSITIES
------------------------------------------
   0 S :   -0.000000    2.000000
Sum of atomic charges       :   -0.0000000

LOEWDIN ATOMIC CHARGES AND SPIN DENSITIES
-----------------------------------------
   0 S :    0.000000    2.000000

FINAL SINGLE POINT ENERGY      -397.657277253041

DIPOLE MOMENT
-------------
                                X             Y             Z
Electronic contribution:      0.00000      -0.00000       0.00000
Nuclear contribution   :      0.00000       0.00000       0.00000
                        -----------------------------------------
Total Dipole Moment    :      0.00000      -0.00000       0.00000
                        -----------------------------------------
Magnitude (a.u.)       :      0.00000
Magnitude (Debye)      :      0.00000

Rotational constants in cm-1:     0.000000     0.000000     0.000000
Rotational constants in MHz :     0.000000     0.000000     0.000000

                             ****ORCA TERMINATED NORMALLY****
TOTAL RUN TIME: 0 days 0 hours 0 minutes 10 seconds 911 msec
