                         Program Version 4.2.0 -  RELEASE  -
|  1> #
|  2> # 17_Cl CCSD(T)/aug-cc-pvt(+d)z
|  3> #
|  4> ! CCSD(T) aug-cc-pvt(+d)z tightscf
|  5>
|  6> *xyz 0 2
|  7>  Cl 0.0 0.0 0.0
|  8> *
|  9>
| 10> %maxcore 5000
| 11>
| 12> %pal
| 13> nprocs 21
| 14> end
| 15>
| 16>
| 17>                          ****END OF INPUT****

CARTESIAN COORDINATES (ANGSTROEM)
---------------------------------
  Cl     0.000000    0.000000    0.000000

 Total Charge           Charge          ....    0
 Multiplicity           Mult            ....    2
 Number of Electrons    NEL             ....   17
 Basis Dimension        Dim             ....   55

ORBITAL ENERGIES
----------------
                 SPIN UP ORBITALS
  NO   OCC          E(Eh)            E(eV)
   0   1.0000    -104.890652     -2854.2197
   1   1.0000     -10.613159      -288.7987
   2   1.0000      -8.098401      -220.3687
   3   1.0000      -8.074029      -219.7055
   4   1.0000      -8.074029      -219.7055
   5   1.0000      -1.136481       -30.9252
   6   1.0000      -0.581952       -15.8357
   7   1.0000      -0.502755       -13.6807
   8   1.0000      -0.502755       -13.6807
   9   0.0000       0.106257         2.8914
  10   0.0000       0.114355         3.1118
  11   0.0000       0.114355         3.1118
  12   0.0000       0.122281         3.3274
  13   0.0000       0.306228         8.3329

                 SPIN DOWN ORBITALS
  NO   OCC          E(Eh)            E(eV)
   0   1.0000    -104.879543     -2853.9175
   1   1.0000     -10.601884      -288.4919
   2   1.0000      -8.068097      -219.5441
   3   1.0000      -8.068097      -219.5441
   4   1.0000      -8.049665      -219.0425
   5   1.0000      -1.014930       -27.6176
   6   1.0000      -0.481099       -13.0914
   7   1.0000      -0.481099       -13.0914
   8   0.0000      -0.041355        -1.1253
   9   0.0000       0.115187         3.1344
  10   0.0000       0.115187         3.1344
  11   0.0000       0.127214         3.4617
  12   0.0000       0.128043         3.4842

E(0)                                       ...   -459.486089095
E(0)                                       ...   -459.486089095
E(CORR)                                    ...     -0.185363317
E(TOT)                                     ...   -459.671452412
E(CCSD(T))                                 ...   -459.677857846

MULLIKEN ATOMIC CHARGES AND SPIN DENSITIES
------------------------------------------
   0 Cl:   -0.000000    1.000000
Sum of atomic charges       :   -0.0000000

LOEWDIN ATOMIC CHARGES AND SPIN DENSITIES
-----------------------------------------
   0 Cl:   -0.000000    1.000000

FINAL SINGLE POINT ENERGY      -459.677857845822

DIPOLE MOMENT
-------------
                                X             Y             Z
Electronic contribution:     -0.00000       0.00000       0.00000
Nuclear contribution   :      0.00000       0.00000       0.00000
                        -----------------------------------------
Total Dipole Moment    :     -0.00000       0.00000       0.00000
                        -----------------------------------------
Magnitude (a.u.)       :      0.00000
Magnitude (Debye)      :      0.00000

Rotational constants in cm-1:     0.000000     0.000000     0.000000
Rotational constants in MHz :     0.000000     0.000000     0.000000

                             ****ORCA TERMINATED NORMALLY****
TOTAL RUN TIME: 0 days 0 hours 0 minutes 17 seconds 681 msec
