                         Program Version 4.2.0 -  RELEASE  -
|  1> #
|  2> # 21_Sc CCSD(T)/aug-cc-pvt(+d)z
|  3> #
|  4> ! CCSD(T) aug-cc-pvt(+d)z tightscf
|  5>
|  6> *xyz 0 2
|  7>  Sc 0.0 0.0 0.0
|  8> *
|  9>
| 10> %maxcore 5000
| 11>
| 12> %pal
| 13> nprocs 24
| 14> end
| 15>
| 16>
| 17>                          ****END OF INPUT****

CARTESIAN COORDINATES (ANGSTROEM)
---------------------------------
  Sc     0.000000    0.000000    0.000000

 Total Charge           Charge          ....    0
 Multiplicity           Mult            ....    2
 Number of Electrons    NEL             ....   21
 Basis Dimension        Dim             ....   93

ORBITAL ENERGIES
----------------
                 SPIN UP ORBITALS
  NO   OCC          E(Eh)            E(eV)
   0   1.0000    -165.897467     -4514.2996
   1   1.0000     -19.085656      -519.3471
   2   1.0000     -15.674946      -426.5370
   3   1.0000     -15.672345      -426.4662
   4   1.0000     -15.672345      -426.4662
   5   1.0000      -2.593720       -70.5787
   6   1.0000      -1.620758       -44.1031
   7   1.0000      -1.620757       -44.1030
   8   1.0000      -1.583051       -43.0770
   9   1.0000      -0.351498        -9.5647
  10   1.0000      -0.216194        -5.8829
  11   0.0000       0.013084         0.3560
  12   0.0000       0.013084         0.3560
  13   0.0000       0.013381         0.3641
  14   0.0000       0.023702         0.6450
  15   0.0000       0.039297         1.0693

                 SPIN DOWN ORBITALS
  NO   OCC          E(Eh)            E(eV)
   0   1.0000    -165.897575     -4514.3025
   1   1.0000     -19.072891      -518.9997
   2   1.0000     -15.672453      -426.4691
   3   1.0000     -15.654520      -425.9811
   4   1.0000     -15.654519      -425.9811
   5   1.0000      -2.539365       -69.0996
   6   1.0000      -1.575582       -42.8738
   7   1.0000      -1.521702       -41.4076
   8   1.0000      -1.521700       -41.4076
   9   1.0000      -0.204570        -5.5666
  10   0.0000       0.011227         0.3055
  11   0.0000       0.014737         0.4010
  12   0.0000       0.014737         0.4010
  13   0.0000       0.024297         0.6611
  14   0.0000       0.039270         1.0686

E(0)                                       ...   -759.739654285
E(0)                                       ...   -759.739654285
E(CORR)                                    ...     -0.279080803
E(TOT)                                     ...   -760.018735088
E(CCSD(T))                                 ...   -760.027616934

MULLIKEN ATOMIC CHARGES AND SPIN DENSITIES
------------------------------------------
   0 Sc:   -0.000000    1.000000
Sum of atomic charges       :   -0.0000000

LOEWDIN ATOMIC CHARGES AND SPIN DENSITIES
-----------------------------------------
   0 Sc:   -0.000000    1.000000

FINAL SINGLE POINT ENERGY      -760.027616933815

DIPOLE MOMENT
-------------
                                X             Y             Z
Electronic contribution:      0.00000       0.00000      -0.00000
Nuclear contribution   :      0.00000       0.00000       0.00000
                        -----------------------------------------
Total Dipole Moment    :      0.00000       0.00000      -0.00000
                        -----------------------------------------
Magnitude (a.u.)       :      0.00000
Magnitude (Debye)      :      0.00000

Rotational constants in cm-1:     0.000000     0.000000     0.000000
Rotational constants in MHz :     0.000000     0.000000     0.000000

                             ****ORCA TERMINATED NORMALLY****
TOTAL RUN TIME: 0 days 0 hours 5 minutes 21 seconds 144 msec
