                         Program Version 4.2.0 -  RELEASE  -
|  1> #
|  2> # 25_Mn CCSD(T)/aug-cc-pvt(+d)z
|  3> #
|  4> ! CCSD(T) aug-cc-pvt(+d)z tightscf
|  5>
|  6> *xyz 0 6
|  7>  Mn 0.0 0.0 0.0
|  8> *
|  9>
| 10> %maxcore 5000
| 11>
| 12> %pal
| 13> nprocs 24
| 14> end
| 15>
| 16>
| 17>                          ****END OF INPUT****

CARTESIAN COORDINATES (ANGSTROEM)
---------------------------------
  Mn     0.000000    0.000000    0.000000

 Total Charge           Charge          ....    0
 Multiplicity           Mult            ....    6
 Number of Electrons    NEL             ....   25
 Basis Dimension        Dim             ....   93

ORBITAL ENERGIES
----------------
                 SPIN UP ORBITALS
  NO   OCC          E(Eh)            E(eV)
   0   1.0000    -240.361185     -6540.5604
   1   1.0000     -28.963690      -788.1421
   2   1.0000     -24.686135      -671.7439
   3   1.0000     -24.660609      -671.0493
   4   1.0000     -24.660603      -671.0491
   5   1.0000      -3.784266      -102.9751
   6   1.0000      -2.534397       -68.9645
   7   1.0000      -2.471799       -67.2611
   8   1.0000      -2.471786       -67.2607
   9   1.0000      -0.447787       -12.1849
  10   1.0000      -0.440307       -11.9813
  11   1.0000      -0.440301       -11.9812
  12   1.0000      -0.415949       -11.3186
  13   1.0000      -0.372436       -10.1345
  14   1.0000      -0.226551        -6.1648
  15   0.0000       0.017740         0.4827
  16   0.0000       0.020443         0.5563
  17   0.0000       0.020443         0.5563
  18   0.0000       0.029799         0.8109
  19   0.0000       0.068808         1.8724

                 SPIN DOWN ORBITALS
  NO   OCC          E(Eh)            E(eV)
   0   1.0000    -240.358286     -6540.4815
   1   1.0000     -28.863236      -785.4086
   2   1.0000     -24.572129      -668.6416
   3   1.0000     -24.571883      -668.6349
   4   1.0000     -24.571883      -668.6349
   5   1.0000      -3.467728       -94.3617
   6   1.0000      -2.128730       -57.9257
   7   1.0000      -2.128721       -57.9254
   8   1.0000      -2.082441       -56.6661
   9   1.0000      -0.227045        -6.1782
  10   0.0000       0.008645         0.2352
  11   0.0000       0.028583         0.7778
  12   0.0000       0.029024         0.7898
  13   0.0000       0.029024         0.7898
  14   0.0000       0.057204         1.5566

E(0)                                       ...  -1149.751910937
E(0)                                       ...  -1149.751910937
E(CORR)                                    ...     -0.494687859
E(TOT)                                     ...  -1150.246598796
E(CCSD(T))                                 ...  -1150.262843186

MULLIKEN ATOMIC CHARGES AND SPIN DENSITIES
------------------------------------------
   0 Mn:   -0.000000    5.000000
Sum of atomic charges       :   -0.0000000

LOEWDIN ATOMIC CHARGES AND SPIN DENSITIES
-----------------------------------------
   0 Mn:   -0.000000    5.000000

FINAL SINGLE POINT ENERGY     -1150.262843185996

DIPOLE MOMENT
-------------
                                X             Y             Z
Electronic contribution:      0.00000       0.00000       0.00000
Nuclear contribution   :      0.00000       0.00000       0.00000
                        -----------------------------------------
Total Dipole Moment    :      0.00000       0.00000       0.00000
                        -----------------------------------------
Magnitude (a.u.)       :      0.00000
Magnitude (Debye)      :      0.00000

Rotational constants in cm-1:     0.000000     0.000000     0.000000
Rotational constants in MHz :     0.000000     0.000000     0.000000

                             ****ORCA TERMINATED NORMALLY****
TOTAL RUN TIME: 0 days 0 hours 4 minutes 18 seconds 302 msec
