                         Program Version 4.2.0 -  RELEASE  -
|  1> #
|  2> # 26_Fe CCSD(T)/aug-cc-pvt(+d)z
|  3> #
|  4> ! CCSD(T) aug-cc-pvt(+d)z tightscf slowconv
|  5>
|  6> *xyz 0 5
|  7>  Fe 0.0 0.0 0.0
|  8> *
|  9>
| 10> %maxcore 5000
| 11>
| 12> %pal
| 13> nprocs 24
| 14> end
| 15>
| 16>
| 17>                          ****END OF INPUT****

CARTESIAN COORDINATES (ANGSTROEM)
---------------------------------
  Fe     0.000000    0.000000    0.000000

 Total Charge           Charge          ....    0
 Multiplicity           Mult            ....    5
 Number of Electrons    NEL             ....   26
 Basis Dimension        Dim             ....   93

ORBITAL ENERGIES
----------------
                 SPIN UP ORBITALS
  NO   OCC          E(Eh)            E(eV)
   0   1.0000    -261.177082     -7106.9897
   1   1.0000     -31.757190      -864.1571
   2   1.0000     -27.237944      -741.1821
   3   1.0000     -27.237944      -741.1821
   4   1.0000     -27.237943      -741.1821
   5   1.0000      -4.086057      -111.1873
   6   1.0000      -2.698835       -73.4390
   7   1.0000      -2.698835       -73.4390
   8   1.0000      -2.698834       -73.4390
   9   1.0000      -0.466412       -12.6917
  10   1.0000      -0.466412       -12.6917
  11   1.0000      -0.466412       -12.6917
  12   1.0000      -0.417443       -11.3592
  13   1.0000      -0.417443       -11.3592
  14   1.0000      -0.228983        -6.2309
  15   0.0000       0.020713         0.5636
  16   0.0000       0.020713         0.5636
  17   0.0000       0.020713         0.5636
  18   0.0000       0.031831         0.8662
  19   0.0000       0.076097         2.0707

                 SPIN DOWN ORBITALS
  NO   OCC          E(Eh)            E(eV)
   0   1.0000    -261.173986     -7106.9055
   1   1.0000     -31.670955      -861.8105
   2   1.0000     -27.155165      -738.9296
   3   1.0000     -27.155165      -738.9296
   4   1.0000     -27.155164      -738.9296
   5   1.0000      -3.830718      -104.2391
   6   1.0000      -2.395465       -65.1839
   7   1.0000      -2.395463       -65.1839
   8   1.0000      -2.395463       -65.1839
   9   1.0000      -0.320910        -8.7324
  10   1.0000      -0.320910        -8.7324
  11   0.0000       0.008010         0.2180
  12   0.0000       0.029649         0.8068
  13   0.0000       0.029649         0.8068
  14   0.0000       0.029649         0.8068
  15   0.0000       0.058278         1.5858

E(0)                                       ...  -1262.385965215
E(0)                                       ...  -1262.385965215
E(CORR)                                    ...     -0.562619860
E(TOT)                                     ...  -1262.948585075
E(CCSD(T))                                 ...  -1262.967477835

MULLIKEN ATOMIC CHARGES AND SPIN DENSITIES
------------------------------------------
   0 Fe:   -0.000000    4.000000
Sum of atomic charges       :   -0.0000000

LOEWDIN ATOMIC CHARGES AND SPIN DENSITIES
-----------------------------------------
   0 Fe:   -0.000000    4.000000

FINAL SINGLE POINT ENERGY     -1262.967477834794

DIPOLE MOMENT
-------------
                                X             Y             Z
Electronic contribution:     -0.00000       0.00000      -0.00000
Nuclear contribution   :      0.00000       0.00000       0.00000
                        -----------------------------------------
Total Dipole Moment    :     -0.00000       0.00000      -0.00000
                        -----------------------------------------
Magnitude (a.u.)       :      0.00000
Magnitude (Debye)      :      0.00000

Rotational constants in cm-1:     0.000000     0.000000     0.000000
Rotational constants in MHz :     0.000000     0.000000     0.000000

                             ****ORCA TERMINATED NORMALLY****
TOTAL RUN TIME: 0 days 0 hours 7 minutes 51 seconds 702 msec
