                         Program Version 4.2.0 -  RELEASE  -
|  1> #
|  2> # 28_Ni CCSD(T)/aug-cc-pvt(+d)z
|  3> #
|  4> ! CCSD(T) aug-cc-pvt(+d)z tightscf veryslowconv kdiis
|  5>
|  6> *xyz 0 3
|  7>  Ni 0.0 0.0 0.0
|  8> *
|  9>
| 10> %maxcore 5000
| 11>
| 12> %pal
| 13> nprocs 24
| 14> end
| 15>
| 16>
| 17>                          ****END OF INPUT****

CARTESIAN COORDINATES (ANGSTROEM)
---------------------------------
  Ni     0.000000    0.000000    0.000000

 Total Charge           Charge          ....    0
 Multiplicity           Mult            ....    3
 Number of Electrons    NEL             ....   28
 Basis Dimension        Dim             ....   93

ORBITAL ENERGIES
----------------
                 SPIN UP ORBITALS
  NO   OCC          E(Eh)            E(eV)
   0   1.0000    -305.398215     -8310.3079
   1   1.0000     -37.690558     -1025.6122
   2   1.0000     -32.736032      -890.7927
   3   1.0000     -32.722110      -890.4139
   4   1.0000     -32.694432      -889.6607
   5   1.0000      -4.705958      -128.0556
   6   1.0000      -3.158702       -85.9527
   7   1.0000      -3.128437       -85.1291
   8   1.0000      -3.069088       -83.5141
   9   1.0000      -0.549076       -14.9411
  10   1.0000      -0.491822       -13.3832
  11   1.0000      -0.469600       -12.7785
  12   1.0000      -0.458093       -12.4654
  13   1.0000      -0.452746       -12.3198
  14   1.0000      -0.236309        -6.4303
  15   0.0000       0.022213         0.6045
  16   0.0000       0.022926         0.6238
  17   0.0000       0.024221         0.6591
  18   0.0000       0.035165         0.9569
  19   0.0000       0.082956         2.2573

                 SPIN DOWN ORBITALS
  NO   OCC          E(Eh)            E(eV)
   0   1.0000    -305.395664     -8310.2385
   1   1.0000     -37.653731     -1024.6101
   2   1.0000     -32.684553      -889.3919
   3   1.0000     -32.683303      -889.3579
   4   1.0000     -32.682804      -889.3443
   5   1.0000      -4.605903      -125.3330
   6   1.0000      -3.039685       -82.7140
   7   1.0000      -2.998065       -81.5815
   8   1.0000      -2.976578       -80.9968
   9   1.0000      -0.474338       -12.9074
  10   1.0000      -0.431684       -11.7467
  11   1.0000      -0.410269       -11.1640
  12   1.0000      -0.401023       -10.9124
  13   0.0000       0.006241         0.1698
  14   0.0000       0.031698         0.8626
  15   0.0000       0.031838         0.8664
  16   0.0000       0.032139         0.8745
  17   0.0000       0.059551         1.6205

E(0)                                       ...  -1506.828387466
E(0)                                       ...  -1506.828387466
E(CORR)                                    ...     -0.717895957
E(TOT)                                     ...  -1507.546283423
E(CCSD(T))                                 ...  -1507.571160476

MULLIKEN ATOMIC CHARGES AND SPIN DENSITIES
------------------------------------------
   0 Ni:   -0.000000    2.000000
Sum of atomic charges       :   -0.0000000

LOEWDIN ATOMIC CHARGES AND SPIN DENSITIES
-----------------------------------------
   0 Ni:   -0.000000    2.000000

FINAL SINGLE POINT ENERGY     -1507.571160475646

DIPOLE MOMENT
-------------
                                X             Y             Z
Electronic contribution:      0.00000      -0.00000       0.00000
Nuclear contribution   :      0.00000       0.00000       0.00000
                        -----------------------------------------
Total Dipole Moment    :      0.00000      -0.00000       0.00000
                        -----------------------------------------
Magnitude (a.u.)       :      0.00000
Magnitude (Debye)      :      0.00000

Rotational constants in cm-1:     0.000000     0.000000     0.000000
Rotational constants in MHz :     0.000000     0.000000     0.000000

                             ****ORCA TERMINATED NORMALLY****
TOTAL RUN TIME: 0 days 0 hours 2 minutes 59 seconds 552 msec
