                         Program Version 4.2.0 -  RELEASE  -
|  1> #
|  2> # 29_Cu CCSD(T)/aug-cc-pvt(+d)z
|  3> #
|  4> ! CCSD(T) aug-cc-pvt(+d)z tightscf slowconv kdiis
|  5>
|  6> *xyz 0 2
|  7>  Cu 0.0 0.0 0.0
|  8> *
|  9>
| 10> %maxcore 5000
| 11>
| 12> %pal
| 13> nprocs 24
| 14> end
| 15>
| 16>
| 17>                          ****END OF INPUT****

CARTESIAN COORDINATES (ANGSTROEM)
---------------------------------
  Cu     0.000000    0.000000    0.000000

 Total Charge           Charge          ....    0
 Multiplicity           Mult            ....    2
 Number of Electrons    NEL             ....   29
 Basis Dimension        Dim             ....   93

ORBITAL ENERGIES
----------------
                 SPIN UP ORBITALS
  NO   OCC          E(Eh)            E(eV)
   0   1.0000    -328.795389     -8946.9774
   1   1.0000     -40.819161     -1110.7458
   2   1.0000     -35.617287      -969.1956
   3   1.0000     -35.617287      -969.1956
   4   1.0000     -35.617287      -969.1956
   5   1.0000      -5.012494      -136.3969
   6   1.0000      -3.322266       -90.4035
   7   1.0000      -3.322266       -90.4035
   8   1.0000      -3.322266       -90.4035
   9   1.0000      -0.489001       -13.3064
  10   1.0000      -0.489001       -13.3064
  11   1.0000      -0.489001       -13.3064
  12   1.0000      -0.489001       -13.3064
  13   1.0000      -0.489001       -13.3064
  14   1.0000      -0.239722        -6.5232
  15   0.0000       0.024223         0.6591
  16   0.0000       0.024223         0.6591
  17   0.0000       0.024223         0.6591
  18   0.0000       0.036773         1.0006
  19   0.0000       0.089489         2.4351

                 SPIN DOWN ORBITALS
  NO   OCC          E(Eh)            E(eV)
   0   1.0000    -328.793622     -8946.9293
   1   1.0000     -40.819900     -1110.7659
   2   1.0000     -35.619855      -969.2655
   3   1.0000     -35.619855      -969.2655
   4   1.0000     -35.619855      -969.2655
   5   1.0000      -5.011771      -136.3772
   6   1.0000      -3.327490       -90.5456
   7   1.0000      -3.327490       -90.5456
   8   1.0000      -3.327490       -90.5456
   9   1.0000      -0.493236       -13.4216
  10   1.0000      -0.493236       -13.4216
  11   1.0000      -0.493236       -13.4216
  12   1.0000      -0.493236       -13.4216
  13   1.0000      -0.493236       -13.4216
  14   0.0000       0.005677         0.1545
  15   0.0000       0.032963         0.8970
  16   0.0000       0.032963         0.8970
  17   0.0000       0.032963         0.8970
  18   0.0000       0.060679         1.6512

E(0)                                       ...  -1638.962738547
E(0)                                       ...  -1638.962738547
E(CORR)                                    ...     -0.798580026
E(TOT)                                     ...  -1639.761318573
E(CCSD(T))                                 ...  -1639.788509694

MULLIKEN ATOMIC CHARGES AND SPIN DENSITIES
------------------------------------------
   0 Cu:    0.000000    1.000000
Sum of atomic charges       :    0.0000000

LOEWDIN ATOMIC CHARGES AND SPIN DENSITIES
-----------------------------------------
   0 Cu:    0.000000    1.000000

FINAL SINGLE POINT ENERGY     -1639.788509694478

DIPOLE MOMENT
-------------
                                X             Y             Z
Electronic contribution:     -0.00000       0.00000      -0.00000
Nuclear contribution   :      0.00000       0.00000       0.00000
                        -----------------------------------------
Total Dipole Moment    :     -0.00000       0.00000      -0.00000
                        -----------------------------------------
Magnitude (a.u.)       :      0.00000
Magnitude (Debye)      :      0.00000

Rotational constants in cm-1:     0.000000     0.000000     0.000000
Rotational constants in MHz :     0.000000     0.000000     0.000000

                             ****ORCA TERMINATED NORMALLY****
TOTAL RUN TIME: 0 days 0 hours 3 minutes 34 seconds 925 msec
