                         Program Version 4.2.0 -  RELEASE  -
|  1> #
|  2> # 30_Zn CCSD(T)/aug-cc-pvt(+d)z
|  3> #
|  4> ! CCSD(T) aug-cc-pvt(+d)z tightscf
|  5>
|  6> *xyz 0 1
|  7>  Zn 0.0 0.0 0.0
|  8> *
|  9>
| 10> %maxcore 5000
| 11>
| 12> %pal
| 13> nprocs 24
| 14> end
| 15>
| 16>
| 17>                          ****END OF INPUT****

CARTESIAN COORDINATES (ANGSTROEM)
---------------------------------
  Zn     0.000000    0.000000    0.000000

 Total Charge           Charge          ....    0
 Multiplicity           Mult            ....    1
 Number of Electrons    NEL             ....   30
 Basis Dimension        Dim             ....   93

ORBITAL ENERGIES
----------------

  NO   OCC          E(Eh)            E(eV)
   0   2.0000    -353.304419     -9613.9020
   1   2.0000     -44.361707     -1207.1434
   2   2.0000     -38.924820     -1059.1982
   3   2.0000     -38.924820     -1059.1982
   4   2.0000     -38.924820     -1059.1982
   5   2.0000      -5.637861      -153.4140
   6   2.0000      -3.839414      -104.4758
   7   2.0000      -3.839414      -104.4758
   8   2.0000      -3.839414      -104.4758
   9   2.0000      -0.782459       -21.2918
  10   2.0000      -0.782459       -21.2918
  11   2.0000      -0.782459       -21.2918
  12   2.0000      -0.782459       -21.2918
  13   2.0000      -0.782459       -21.2918
  14   2.0000      -0.292565        -7.9611
  15   0.0000       0.026257         0.7145
  16   0.0000       0.026257         0.7145
  17   0.0000       0.026257         0.7145
  18   0.0000       0.034961         0.9513
  19   0.0000       0.088927         2.4198

E(0)                                       ...  -1777.846769827
E(0)                                       ...  -1777.846769827
E(CORR)                                    ...     -0.823413270
E(TOT)                                     ...  -1778.670183097
E(CCSD(T))                                 ...  -1778.693214708

MULLIKEN ATOMIC CHARGES
-----------------------
   0 Zn:   -0.000000
Sum of atomic charges:   -0.0000000

LOEWDIN ATOMIC CHARGES
----------------------
   0 Zn:   -0.000000

FINAL SINGLE POINT ENERGY     -1778.693214707755

DIPOLE MOMENT
-------------
                                X             Y             Z
Electronic contribution:     -0.00000      -0.00000      -0.00000
Nuclear contribution   :      0.00000       0.00000       0.00000
                        -----------------------------------------
Total Dipole Moment    :     -0.00000      -0.00000      -0.00000
                        -----------------------------------------
Magnitude (a.u.)       :      0.00000
Magnitude (Debye)      :      0.00000

Rotational constants in cm-1:     0.000000     0.000000     0.000000
Rotational constants in MHz :     0.000000     0.000000     0.000000

                             ****ORCA TERMINATED NORMALLY****
TOTAL RUN TIME: 0 days 0 hours 2 minutes 49 seconds 677 msec
