                         Program Version 4.2.0 -  RELEASE  -
|  1> #
|  2> # 31_Ga CCSD(T)/aug-cc-pvt(+d)z
|  3> #
|  4> ! CCSD(T) aug-cc-pvt(+d)z tightscf
|  5>
|  6> *xyz 0 2
|  7>  Ga 0.0 0.0 0.0
|  8> *
|  9>
| 10> %maxcore 5000
| 11>
| 12> %pal
| 13> nprocs 24
| 14> end
| 15>
| 16>
| 17>                          ****END OF INPUT****

CARTESIAN COORDINATES (ANGSTROEM)
---------------------------------
  Ga     0.000000    0.000000    0.000000

 Total Charge           Charge          ....    0
 Multiplicity           Mult            ....    2
 Number of Electrons    NEL             ....   31
 Basis Dimension        Dim             ....   59

ORBITAL ENERGIES
----------------
                 SPIN UP ORBITALS
  NO   OCC          E(Eh)            E(eV)
   0   1.0000    -378.817571    -10308.1502
   1   1.0000     -48.166996     -1310.6906
   2   1.0000     -42.493116     -1156.2965
   3   1.0000     -42.492870     -1156.2898
   4   1.0000     -42.492870     -1156.2898
   5   1.0000      -6.394581      -174.0054
   6   1.0000      -4.483047      -121.9899
   7   1.0000      -4.483047      -121.9899
   8   1.0000      -4.482304      -121.9697
   9   1.0000      -1.197067       -32.5739
  10   1.0000      -1.197067       -32.5739
  11   1.0000      -1.191100       -32.4115
  12   1.0000      -1.191100       -32.4115
  13   1.0000      -1.189244       -32.3610
  14   1.0000      -0.456803       -12.4302
  15   1.0000      -0.214947        -5.8490
  16   0.0000       0.012535         0.3411
  17   0.0000       0.012535         0.3411
  18   0.0000       0.029497         0.8026
  19   0.0000       0.061294         1.6679
  20   0.0000       0.077724         2.1150

                 SPIN DOWN ORBITALS
  NO   OCC          E(Eh)            E(eV)
   0   1.0000    -378.816448    -10308.1196
   1   1.0000     -48.167169     -1310.6953
   2   1.0000     -42.493088     -1156.2957
   3   1.0000     -42.493088     -1156.2957
   4   1.0000     -42.490675     -1156.2300
   5   1.0000      -6.393360      -173.9722
   6   1.0000      -4.484067      -122.0177
   7   1.0000      -4.484067      -122.0177
   8   1.0000      -4.473675      -121.7349
   9   1.0000      -1.197855       -32.5953
  10   1.0000      -1.197855       -32.5953
  11   1.0000      -1.189578       -32.3701
  12   1.0000      -1.189578       -32.3701
  13   1.0000      -1.186995       -32.2998
  14   1.0000      -0.395143       -10.7524
  15   0.0000       0.018622         0.5067
  16   0.0000       0.018622         0.5067
  17   0.0000       0.032461         0.8833
  18   0.0000       0.037641         1.0243
  19   0.0000       0.081897         2.2285

E(0)                                       ...  -1923.262040098
E(0)                                       ...  -1923.262040098
E(CORR)                                    ...     -0.116366527
E(TOT)                                     ...  -1923.378406624
E(CCSD(T))                                 ...  -1923.385107261

MULLIKEN ATOMIC CHARGES AND SPIN DENSITIES
------------------------------------------
   0 Ga:    0.000000    1.000000
Sum of atomic charges       :    0.0000000

LOEWDIN ATOMIC CHARGES AND SPIN DENSITIES
-----------------------------------------
   0 Ga:    0.000000    1.000000

FINAL SINGLE POINT ENERGY     -1923.385107261377

DIPOLE MOMENT
-------------
                                X             Y             Z
Electronic contribution:      0.00000       0.00000       0.00000
Nuclear contribution   :      0.00000       0.00000       0.00000
                        -----------------------------------------
Total Dipole Moment    :      0.00000       0.00000       0.00000
                        -----------------------------------------
Magnitude (a.u.)       :      0.00000
Magnitude (Debye)      :      0.00000

Rotational constants in cm-1:     0.000000     0.000000     0.000000
Rotational constants in MHz :     0.000000     0.000000     0.000000

                             ****ORCA TERMINATED NORMALLY****
TOTAL RUN TIME: 0 days 0 hours 0 minutes 34 seconds 387 msec
