                         Program Version 4.2.0 -  RELEASE  -
|  1> #
|  2> # 34_Se CCSD(T)/aug-cc-pvt(+d)z
|  3> #
|  4> ! CCSD(T) aug-cc-pvt(+d)z tightscf
|  5>
|  6> *xyz 0 3
|  7>  Se 0.0 0.0 0.0
|  8> *
|  9>
| 10> %maxcore 5000
| 11>
| 12> %pal
| 13> nprocs 24
| 14> end
| 15>
| 16>
| 17>                          ****END OF INPUT****

CARTESIAN COORDINATES (ANGSTROEM)
---------------------------------
  Se     0.000000    0.000000    0.000000

 Total Charge           Charge          ....    0
 Multiplicity           Mult            ....    3
 Number of Electrons    NEL             ....   34
 Basis Dimension        Dim             ....   59

ORBITAL ENERGIES
----------------
                 SPIN UP ORBITALS
  NO   OCC          E(Eh)            E(eV)
   0   1.0000    -460.870043    -12540.9114
   1   1.0000     -60.669554     -1650.9025
   2   1.0000     -54.273515     -1476.8574
   3   1.0000     -54.273515     -1476.8574
   4   1.0000     -54.267518     -1476.6942
   5   1.0000      -8.938062      -243.2170
   6   1.0000      -6.676580      -181.6790
   7   1.0000      -6.676580      -181.6790
   8   1.0000      -6.656565      -181.1343
   9   1.0000      -2.663068       -72.4658
  10   1.0000      -2.663068       -72.4658
  11   1.0000      -2.648842       -72.0786
  12   1.0000      -2.648842       -72.0786
  13   1.0000      -2.644190       -71.9521
  14   1.0000      -0.936769       -25.4908
  15   1.0000      -0.448256       -12.1977
  16   1.0000      -0.448256       -12.1977
  17   1.0000      -0.384484       -10.4623
  18   0.0000       0.075341         2.0501
  19   0.0000       0.078102         2.1253
  20   0.0000       0.078102         2.1253
  21   0.0000       0.085189         2.3181
  22   0.0000       0.201883         5.4935

                 SPIN DOWN ORBITALS
  NO   OCC          E(Eh)            E(eV)
   0   1.0000    -460.863439    -12540.7317
   1   1.0000     -60.666599     -1650.8221
   2   1.0000     -54.265789     -1476.6472
   3   1.0000     -54.263794     -1476.5929
   4   1.0000     -54.263794     -1476.5929
   5   1.0000      -8.925226      -242.8678
   6   1.0000      -6.653825      -181.0598
   7   1.0000      -6.651422      -180.9944
   8   1.0000      -6.651422      -180.9944
   9   1.0000      -2.650069       -72.1121
  10   1.0000      -2.650069       -72.1121
  11   1.0000      -2.642183       -71.8975
  12   1.0000      -2.642183       -71.8975
  13   1.0000      -2.639683       -71.8294
  14   1.0000      -0.742164       -20.1953
  15   1.0000      -0.348949        -9.4954
  16   0.0000      -0.006288        -0.1711
  17   0.0000      -0.006288        -0.1711
  18   0.0000       0.084023         2.2864
  19   0.0000       0.086605         2.3567
  20   0.0000       0.098966         2.6930

E(0)                                       ...  -2399.872584625
E(0)                                       ...  -2399.872584625
E(CORR)                                    ...     -0.181227576
E(TOT)                                     ...  -2400.053812202
E(CCSD(T))                                 ...  -2400.060028395

MULLIKEN ATOMIC CHARGES AND SPIN DENSITIES
------------------------------------------
   0 Se:   -0.000000    2.000000
Sum of atomic charges       :   -0.0000000

LOEWDIN ATOMIC CHARGES AND SPIN DENSITIES
-----------------------------------------
   0 Se:    0.000000    2.000000

FINAL SINGLE POINT ENERGY     -2400.060028395147

DIPOLE MOMENT
-------------
                                X             Y             Z
Electronic contribution:      0.00000       0.00000      -0.00000
Nuclear contribution   :      0.00000       0.00000       0.00000
                        -----------------------------------------
Total Dipole Moment    :      0.00000       0.00000      -0.00000
                        -----------------------------------------
Magnitude (a.u.)       :      0.00000
Magnitude (Debye)      :      0.00000

Rotational constants in cm-1:     0.000000     0.000000     0.000000
Rotational constants in MHz :     0.000000     0.000000     0.000000

                             ****ORCA TERMINATED NORMALLY****
TOTAL RUN TIME: 0 days 0 hours 0 minutes 34 seconds 58 msec
